DF-ISE text

Info {
  version   = 1.0
  type      = xyplot
  datasets  = [
    "vdiff(g,f)" "vdiff(d,f)" "vdiff(s,f)" "i(t1,f)" ]
  functions = [
    Voltage Voltage Voltage Current ]
}

Data {
      1.20000000000000E+00   1.00000000000000E+00   0.00000000000000E+00   3.74121880303078E-06
      1.19000000000000E+00   1.00000000000000E+00   0.00000000000000E+00   3.62931403193229E-06
      1.18000000000000E+00   1.00000000000000E+00   0.00000000000000E+00   3.51831162871051E-06
      1.17000000000000E+00   1.00000000000000E+00   0.00000000000000E+00   3.40826591706149E-06
      1.16000000000000E+00   1.00000000000000E+00   0.00000000000000E+00   3.29923098779860E-06
      1.15000000000000E+00   1.00000000000000E+00   0.00000000000000E+00   3.19126064717664E-06
      1.14000000000000E+00   1.00000000000000E+00   0.00000000000000E+00   3.08440836223593E-06
      1.13000000000000E+00   1.00000000000000E+00   0.00000000000000E+00   2.97872720332457E-06
      1.12000000000000E+00   1.00000000000000E+00   0.00000000000000E+00   2.87426978408515E-06
      1.11000000000000E+00   1.00000000000000E+00   0.00000000000000E+00   2.77108819894006E-06
      1.10000000000000E+00   1.00000000000000E+00   0.00000000000000E+00   2.66923395685541E-06
      1.09000000000000E+00   1.00000000000000E+00   0.00000000000000E+00   2.56875790976052E-06
      1.08000000000000E+00   1.00000000000000E+00   0.00000000000000E+00   2.46971017403487E-06
      1.07000000000000E+00   1.00000000000000E+00   0.00000000000000E+00   2.37213996738764E-06
      1.06000000000000E+00   1.00000000000000E+00   0.00000000000000E+00   2.27609579953668E-06
      1.05000000000000E+00   1.00000000000000E+00   0.00000000000000E+00   2.18162489694297E-06
      1.04000000000000E+00   1.00000000000000E+00   0.00000000000000E+00   2.08877393341465E-06
      1.03000000000000E+00   1.00000000000000E+00   0.00000000000000E+00   1.99758814726199E-06
      1.02000000000000E+00   1.00000000000000E+00   0.00000000000000E+00   1.90811122926621E-06
      1.01000000000000E+00   1.00000000000000E+00   0.00000000000000E+00   1.82038619747375E-06
      1.00000000000000E+00   1.00000000000000E+00   0.00000000000000E+00   1.73445394978260E-06
      9.90000000000000E-01   1.00000000000000E+00   0.00000000000000E+00   1.65035470851796E-06
      9.80000000000000E-01   1.00000000000000E+00   0.00000000000000E+00   1.56812711501143E-06
      9.70000000000000E-01   1.00000000000000E+00   0.00000000000000E+00   1.48780767327869E-06
      9.60000000000000E-01   1.00000000000000E+00   0.00000000000000E+00   1.40943117450202E-06
      9.50000000000000E-01   1.00000000000000E+00   0.00000000000000E+00   1.33303108315240E-06
      9.40000000000000E-01   1.00000000000000E+00   0.00000000000000E+00   1.25863835532444E-06
      9.30000000000000E-01   1.00000000000000E+00   0.00000000000000E+00   1.18628288903373E-06
      9.20000000000000E-01   1.00000000000000E+00   0.00000000000000E+00   1.11599243195577E-06
      9.10000000000000E-01   1.00000000000000E+00   0.00000000000000E+00   1.04779266860882E-06
      9.00000000000000E-01   1.00000000000000E+00   0.00000000000000E+00   9.81707350410109E-07
      8.90000000000000E-01   1.00000000000000E+00   0.00000000000000E+00   9.17758305384165E-07
      8.80000000000000E-01   1.00000000000000E+00   0.00000000000000E+00   8.55965453762894E-07
      8.70000000000000E-01   1.00000000000000E+00   0.00000000000000E+00   7.96346832083776E-07
      8.60000000000000E-01   1.00000000000000E+00   0.00000000000000E+00   7.38918626064025E-07
      8.50000000000000E-01   1.00000000000000E+00   0.00000000000000E+00   6.83695199711086E-07
      8.40000000000000E-01   1.00000000000000E+00   0.00000000000000E+00   6.30689148322711E-07
      8.30000000000000E-01   1.00000000000000E+00   0.00000000000000E+00   5.79911359883093E-07
      8.20000000000000E-01   1.00000000000000E+00   0.00000000000000E+00   5.31371144876254E-07
      8.10000000000000E-01   1.00000000000000E+00   0.00000000000000E+00   4.85076053028483E-07
      8.00000000000000E-01   1.00000000000000E+00   0.00000000000000E+00   4.41032090849231E-07
      7.90000000000000E-01   1.00000000000000E+00   0.00000000000000E+00   3.99243552814898E-07
      7.80000000000000E-01   1.00000000000000E+00   0.00000000000000E+00   3.59712898340438E-07
      7.70000000000000E-01   1.00000000000000E+00   0.00000000000000E+00   3.22440627313334E-07
      7.60000000000000E-01   1.00000000000000E+00   0.00000000000000E+00   2.87425021643669E-07
      7.50000000000000E-01   1.00000000000000E+00   0.00000000000000E+00   2.54661774573555E-07
      7.40000000000000E-01   1.00000000000000E+00   0.00000000000000E+00   2.24143489727888E-07
      7.30000000000000E-01   1.00000000000000E+00   0.00000000000000E+00   1.95859030488625E-07
      7.20000000000000E-01   1.00000000000000E+00   0.00000000000000E+00   1.69792699132497E-07
      7.10000000000000E-01   1.00000000000000E+00   0.00000000000000E+00   1.45923224298223E-07
      6.99999999999999E-01   1.00000000000000E+00   0.00000000000000E+00   1.24222535490707E-07
      6.89999999999999E-01   1.00000000000000E+00   0.00000000000000E+00   1.04654305221021E-07
      6.79999999999999E-01   1.00000000000000E+00   0.00000000000000E+00   8.71722572910189E-08
      6.69999999999999E-01   1.00000000000000E+00   0.00000000000000E+00   7.17182454621201E-08
      6.59999999999999E-01   1.00000000000000E+00   0.00000000000000E+00   5.82201670001122E-08
      6.49999999999999E-01   1.00000000000000E+00   0.00000000000000E+00   4.65898571085134E-08
      6.39999999999999E-01   1.00000000000000E+00   0.00000000000000E+00   3.67212338363634E-08
      6.29999999999999E-01   1.00000000000000E+00   0.00000000000000E+00   2.84891234106484E-08
      6.19999999999999E-01   1.00000000000000E+00   0.00000000000000E+00   2.17493741698313E-08
      6.09999999999999E-01   1.00000000000000E+00   0.00000000000000E+00   1.63409414445532E-08
      5.99999999999999E-01   1.00000000000000E+00   0.00000000000000E+00   1.20904570362035E-08
      5.89999999999999E-01   1.00000000000000E+00   0.00000000000000E+00   8.81926146310038E-09
      5.79999999999999E-01   1.00000000000000E+00   0.00000000000000E+00   6.35204903314848E-09
      5.69999999999999E-01   1.00000000000000E+00   0.00000000000000E+00   4.52552781768928E-09
      5.59999999999999E-01   1.00000000000000E+00   0.00000000000000E+00   3.19531720786643E-09
      5.49999999999999E-01   1.00000000000000E+00   0.00000000000000E+00   2.23988433004689E-09
      5.39999999999999E-01   1.00000000000000E+00   0.00000000000000E+00   1.56132579890020E-09
      5.29999999999999E-01   1.00000000000000E+00   0.00000000000000E+00   1.08366486896980E-09
      5.19999999999999E-01   1.00000000000000E+00   0.00000000000000E+00   7.49707845319857E-10
      5.09999999999999E-01   1.00000000000000E+00   0.00000000000000E+00   5.17419023917665E-10
      5.00000000000000E-01   1.00000000000000E+00   0.00000000000000E+00   3.56464344717648E-10
      4.90000000000000E-01   1.00000000000000E+00   0.00000000000000E+00   2.45252585883287E-10
      4.80000000000000E-01   1.00000000000000E+00   0.00000000000000E+00   1.68570625520752E-10
      4.70000000000000E-01   1.00000000000000E+00   0.00000000000000E+00   1.15778541260415E-10
      4.60000000000000E-01   1.00000000000000E+00   0.00000000000000E+00   7.94748718061803E-11
      4.50000000000000E-01   1.00000000000000E+00   0.00000000000000E+00   5.45310145566126E-11
      4.40000000000000E-01   1.00000000000000E+00   0.00000000000000E+00   3.74033335507914E-11
      4.30000000000000E-01   1.00000000000000E+00   0.00000000000000E+00   2.56483833395639E-11
      4.20000000000000E-01   1.00000000000000E+00   0.00000000000000E+00   1.75838784995400E-11
      4.10000000000000E-01   1.00000000000000E+00   0.00000000000000E+00   1.20528762589820E-11
      4.00000000000000E-01   1.00000000000000E+00   0.00000000000000E+00   8.26038581166357E-12
      3.90000000000000E-01   1.00000000000000E+00   0.00000000000000E+00   5.66047520408829E-12
      3.80000000000000E-01   1.00000000000000E+00   0.00000000000000E+00   3.87842641735418E-12
      3.70000000000000E-01   1.00000000000000E+00   0.00000000000000E+00   2.65713697921432E-12
      3.60000000000000E-01   1.00000000000000E+00   0.00000000000000E+00   1.82025624761262E-12
      3.50000000000000E-01   1.00000000000000E+00   0.00000000000000E+00   1.24685212449922E-12
      3.40000000000000E-01   1.00000000000000E+00   0.00000000000000E+00   8.54012461055082E-13
      3.30000000000000E-01   1.00000000000000E+00   0.00000000000000E+00   5.84901646315083E-13
      3.20000000000000E-01   1.00000000000000E+00   0.00000000000000E+00   4.00565046746538E-13
      3.10000000000000E-01   1.00000000000000E+00   0.00000000000000E+00   2.74306919985623E-13
      3.00000000000000E-01   1.00000000000000E+00   0.00000000000000E+00   1.87834663812697E-13
      2.90000000000000E-01   1.00000000000000E+00   0.00000000000000E+00   1.28615001155616E-13
      2.80000000000000E-01   1.00000000000000E+00   0.00000000000000E+00   8.80614836707787E-14
      2.70000000000000E-01   1.00000000000000E+00   0.00000000000000E+00   6.02921034298622E-14
      2.60000000000000E-01   1.00000000000000E+00   0.00000000000000E+00   4.12778024465813E-14
      2.50000000000000E-01   1.00000000000000E+00   0.00000000000000E+00   2.82589585901419E-14
      2.40000000000000E-01   1.00000000000000E+00   0.00000000000000E+00   1.93455536840145E-14
      2.30000000000001E-01   1.00000000000000E+00   0.00000000000000E+00   1.32432294215826E-14
      2.20000000000001E-01   1.00000000000000E+00   0.00000000000000E+00   9.06561203168943E-15
      2.10000000000001E-01   1.00000000000000E+00   0.00000000000000E+00   6.20574950017602E-15
      2.00000000000001E-01   1.00000000000000E+00   0.00000000000000E+00   4.24804946288069E-15
      1.90000000000001E-01   1.00000000000000E+00   0.00000000000000E+00   2.90796304952653E-15
      1.80000000000001E-01   1.00000000000000E+00   0.00000000000000E+00   1.99067508555497E-15
      1.70000000000001E-01   1.00000000000000E+00   0.00000000000000E+00   1.36281292381080E-15
      1.60000000000001E-01   1.00000000000000E+00   0.00000000000000E+00   9.33072081569850E-16
      1.50000000000001E-01   1.00000000000000E+00   0.00000000000000E+00   6.38948998471930E-16
      1.40000000000001E-01   1.00000000000000E+00   0.00000000000000E+00   4.37656747593370E-16
      1.30000000000001E-01   1.00000000000000E+00   0.00000000000000E+00   2.99905621526414E-16
      1.20000000000001E-01   1.00000000000000E+00   0.00000000000000E+00   2.05644117925227E-16
      1.10000000000001E-01   1.00000000000000E+00   0.00000000000000E+00   1.41144079658196E-16
      1.00000000000001E-01   1.00000000000000E+00   0.00000000000000E+00   9.70097400942251E-17
      9.00000000000010E-02   1.00000000000000E+00   0.00000000000000E+00   6.68127733343781E-17
      8.00000000000010E-02   1.00000000000000E+00   0.00000000000000E+00   4.61577208795082E-17
      7.00000000000012E-02   1.00000000000000E+00   0.00000000000000E+00   3.20262250119450E-17
      6.00000000000012E-02   1.00000000000000E+00   0.00000000000000E+00   2.22768666651486E-17
      5.00000000000012E-02   1.00000000000000E+00   0.00000000000000E+00   1.57051409792660E-17
      4.00000000000011E-02   1.00000000000000E+00   0.00000000000000E+00   1.12271612084214E-17
      3.00000000000011E-02   1.00000000000000E+00   0.00000000000000E+00   7.70842969527705E-18
      2.00000000000014E-02   1.00000000000000E+00   0.00000000000000E+00   6.02352390626723E-18
      1.00000000000013E-02   1.00000000000000E+00   0.00000000000000E+00   4.43858288368233E-18
      0.00000000000000E+00   1.00000000000000E+00   0.00000000000000E+00   3.39542236847802E-18
}
