DF-ISE text

Info {
  version   = 1.0
  type      = xyplot
  datasets  = [
    "vdiff(g,f)" "vdiff(d,f)" "vdiff(s,f)" "i(t1,f)" ]
  functions = [
    Voltage Voltage Voltage Current ]
}

Data {
      1.20000000000000E+00   5.00000000000000E-02   0.00000000000000E+00   7.14449213341856E-07
      1.19000000000000E+00   5.00000000000000E-02   0.00000000000000E+00   7.04323847099385E-07
      1.18000000000000E+00   5.00000000000000E-02   0.00000000000000E+00   6.94032482088895E-07
      1.17000000000000E+00   5.00000000000000E-02   0.00000000000000E+00   6.83574341949129E-07
      1.16000000000000E+00   5.00000000000000E-02   0.00000000000000E+00   6.72948979489273E-07
      1.15000000000000E+00   5.00000000000000E-02   0.00000000000000E+00   6.62156258727557E-07
      1.14000000000000E+00   5.00000000000000E-02   0.00000000000000E+00   6.51196407564294E-07
      1.13000000000000E+00   5.00000000000000E-02   0.00000000000000E+00   6.40070067754509E-07
      1.12000000000000E+00   5.00000000000000E-02   0.00000000000000E+00   6.28778285124845E-07
      1.11000000000000E+00   5.00000000000000E-02   0.00000000000000E+00   6.17322624780578E-07
      1.10000000000000E+00   5.00000000000000E-02   0.00000000000000E+00   6.05705163281950E-07
      1.09000000000000E+00   5.00000000000000E-02   0.00000000000000E+00   5.93928543342520E-07
      1.08000000000000E+00   5.00000000000000E-02   0.00000000000000E+00   5.81995988387420E-07
      1.07000000000000E+00   5.00000000000000E-02   0.00000000000000E+00   5.69911415109194E-07
      1.06000000000000E+00   5.00000000000000E-02   0.00000000000000E+00   5.57679435948016E-07
      1.05000000000000E+00   5.00000000000000E-02   0.00000000000000E+00   5.45305368312936E-07
      1.04000000000000E+00   5.00000000000000E-02   0.00000000000000E+00   5.32795282927203E-07
      1.03000000000000E+00   5.00000000000000E-02   0.00000000000000E+00   5.20156020180560E-07
      1.02000000000000E+00   5.00000000000000E-02   0.00000000000000E+00   5.07395191793473E-07
      1.01000000000000E+00   5.00000000000000E-02   0.00000000000000E+00   4.94521248888849E-07
      1.00000000000000E+00   5.00000000000000E-02   0.00000000000000E+00   4.81543419157360E-07
      9.90000000000000E-01   5.00000000000000E-02   0.00000000000000E+00   4.68471675686685E-07
      9.80000000000000E-01   5.00000000000000E-02   0.00000000000000E+00   4.55316704130404E-07
      9.70000000000000E-01   5.00000000000000E-02   0.00000000000000E+00   4.42089850054134E-07
      9.60000000000000E-01   5.00000000000000E-02   0.00000000000000E+00   4.28803048225393E-07
      9.50000000000000E-01   5.00000000000000E-02   0.00000000000000E+00   4.15468738757429E-07
      9.40000000000000E-01   5.00000000000000E-02   0.00000000000000E+00   4.02099772776418E-07
      9.30000000000000E-01   5.00000000000000E-02   0.00000000000000E+00   3.88709310812326E-07
      9.20000000000000E-01   5.00000000000000E-02   0.00000000000000E+00   3.75310717234933E-07
      9.10000000000000E-01   5.00000000000000E-02   0.00000000000000E+00   3.61917453719467E-07
      9.00000000000000E-01   5.00000000000000E-02   0.00000000000000E+00   3.48542974077896E-07
      8.90000000000000E-01   5.00000000000000E-02   0.00000000000000E+00   3.35200622141167E-07
      8.80000000000000E-01   5.00000000000000E-02   0.00000000000000E+00   3.21903534109290E-07
      8.70000000000000E-01   5.00000000000000E-02   0.00000000000000E+00   3.08664547217792E-07
      8.60000000000000E-01   5.00000000000000E-02   0.00000000000000E+00   2.95496117805899E-07
      8.50000000000000E-01   5.00000000000000E-02   0.00000000000000E+00   2.82410253717903E-07
      8.40000000000000E-01   5.00000000000000E-02   0.00000000000000E+00   2.69418467950255E-07
      8.30000000000000E-01   5.00000000000000E-02   0.00000000000000E+00   2.56531761955400E-07
      8.20000000000000E-01   5.00000000000000E-02   0.00000000000000E+00   2.43760647473259E-07
      8.10000000000000E-01   5.00000000000000E-02   0.00000000000000E+00   2.31115214881602E-07
      8.00000000000000E-01   5.00000000000000E-02   0.00000000000000E+00   2.18605253898093E-07
      7.90000000000000E-01   5.00000000000000E-02   0.00000000000000E+00   2.06240429432912E-07
      7.80000000000000E-01   5.00000000000000E-02   0.00000000000000E+00   1.94030512100108E-07
      7.70000000000000E-01   5.00000000000000E-02   0.00000000000000E+00   1.81985660006234E-07
      7.60000000000000E-01   5.00000000000000E-02   0.00000000000000E+00   1.70116746487143E-07
      7.50000000000000E-01   5.00000000000000E-02   0.00000000000000E+00   1.58435727782395E-07
      7.40000000000000E-01   5.00000000000000E-02   0.00000000000000E+00   1.46956044461751E-07
      7.30000000000000E-01   5.00000000000000E-02   0.00000000000000E+00   1.35693057714172E-07
      7.20000000000000E-01   5.00000000000000E-02   0.00000000000000E+00   1.24664508466894E-07
      7.10000000000000E-01   5.00000000000000E-02   0.00000000000000E+00   1.13891016544926E-07
      6.99999999999999E-01   5.00000000000000E-02   0.00000000000000E+00   1.03396600104230E-07
      6.89999999999999E-01   5.00000000000000E-02   0.00000000000000E+00   9.32092313923175E-08
      6.79999999999999E-01   5.00000000000000E-02   0.00000000000000E+00   8.33613853172129E-08
      6.69999999999999E-01   5.00000000000000E-02   0.00000000000000E+00   7.38905425500874E-08
      6.59999999999999E-01   5.00000000000000E-02   0.00000000000000E+00   6.48395301347137E-08
      6.49999999999999E-01   5.00000000000000E-02   0.00000000000000E+00   5.62565066812242E-08
      6.39999999999999E-01   5.00000000000000E-02   0.00000000000000E+00   4.81942949833244E-08
      6.29999999999999E-01   5.00000000000000E-02   0.00000000000000E+00   4.07086683039354E-08
      6.19999999999999E-01   5.00000000000000E-02   0.00000000000000E+00   3.38551766323536E-08
      6.09999999999999E-01   5.00000000000000E-02   0.00000000000000E+00   2.76842638822949E-08
      5.99999999999999E-01   5.00000000000000E-02   0.00000000000000E+00   2.22348784416714E-08
      5.89999999999999E-01   5.00000000000000E-02   0.00000000000000E+00   1.75274999900384E-08
      5.79999999999999E-01   5.00000000000000E-02   0.00000000000000E+00   1.35582344863524E-08
      5.69999999999999E-01   5.00000000000000E-02   0.00000000000000E+00   1.02959003966617E-08
      5.59999999999999E-01   5.00000000000000E-02   0.00000000000000E+00   7.68346292732994E-09
      5.49999999999999E-01   5.00000000000000E-02   0.00000000000000E+00   5.64384876391028E-09
      5.39999999999999E-01   5.00000000000000E-02   0.00000000000000E+00   4.08869762024297E-09
      5.29999999999999E-01   5.00000000000000E-02   0.00000000000000E+00   2.92773705171419E-09
      5.19999999999999E-01   5.00000000000000E-02   0.00000000000000E+00   2.07660317566802E-09
      5.09999999999999E-01   5.00000000000000E-02   0.00000000000000E+00   1.46186392956012E-09
      5.00000000000000E-01   5.00000000000000E-02   0.00000000000000E+00   1.02312717209644E-09
      4.90000000000000E-01   5.00000000000000E-02   0.00000000000000E+00   7.12893608638585E-10
      4.80000000000000E-01   5.00000000000000E-02   0.00000000000000E+00   4.95070949627435E-10
      4.70000000000000E-01   5.00000000000000E-02   0.00000000000000E+00   3.42942829581999E-10
      4.60000000000000E-01   5.00000000000000E-02   0.00000000000000E+00   2.37115939531083E-10
      4.50000000000000E-01   5.00000000000000E-02   0.00000000000000E+00   1.63714356839550E-10
      4.40000000000000E-01   5.00000000000000E-02   0.00000000000000E+00   1.12914119640226E-10
      4.30000000000000E-01   5.00000000000000E-02   0.00000000000000E+00   7.78132817288395E-11
      4.20000000000000E-01   5.00000000000000E-02   0.00000000000000E+00   5.35898391752211E-11
      4.10000000000000E-01   5.00000000000000E-02   0.00000000000000E+00   3.68886202292083E-11
      4.00000000000000E-01   5.00000000000000E-02   0.00000000000000E+00   2.53820233970295E-11
      3.90000000000000E-01   5.00000000000000E-02   0.00000000000000E+00   1.74588449045215E-11
      3.80000000000000E-01   5.00000000000000E-02   0.00000000000000E+00   1.20055981278525E-11
      3.70000000000000E-01   5.00000000000000E-02   0.00000000000000E+00   8.25370525459448E-12
      3.60000000000000E-01   5.00000000000000E-02   0.00000000000000E+00   5.67315473124725E-12
      3.50000000000000E-01   5.00000000000000E-02   0.00000000000000E+00   3.89871459734769E-12
      3.40000000000000E-01   5.00000000000000E-02   0.00000000000000E+00   2.67884633508470E-12
      3.30000000000000E-01   5.00000000000000E-02   0.00000000000000E+00   1.84039253663589E-12
      3.20000000000000E-01   5.00000000000000E-02   0.00000000000000E+00   1.26419762064603E-12
      3.10000000000000E-01   5.00000000000000E-02   0.00000000000000E+00   8.68292286426021E-13
      3.00000000000000E-01   5.00000000000000E-02   0.00000000000000E+00   5.96303443438030E-13
      2.90000000000000E-01   5.00000000000000E-02   0.00000000000000E+00   4.09470379205676E-13
      2.80000000000000E-01   5.00000000000000E-02   0.00000000000000E+00   2.81147645979163E-13
      2.70000000000000E-01   5.00000000000000E-02   0.00000000000000E+00   1.93021581186288E-13
      2.60000000000000E-01   5.00000000000000E-02   0.00000000000000E+00   1.32507104446339E-13
      2.50000000000000E-01   5.00000000000000E-02   0.00000000000000E+00   9.09570919444709E-14
      2.40000000000000E-01   5.00000000000000E-02   0.00000000000000E+00   6.24309820576603E-14
      2.30000000000001E-01   5.00000000000000E-02   0.00000000000000E+00   4.28481380556011E-14
      2.20000000000001E-01   5.00000000000000E-02   0.00000000000000E+00   2.94058589103511E-14
      2.10000000000001E-01   5.00000000000000E-02   0.00000000000000E+00   2.01793810628746E-14
      2.00000000000001E-01   5.00000000000000E-02   0.00000000000000E+00   1.38470048812168E-14
      1.90000000000001E-01   5.00000000000000E-02   0.00000000000000E+00   9.50123244445098E-15
      1.80000000000001E-01   5.00000000000000E-02   0.00000000000000E+00   6.51902018619963E-15
      1.70000000000001E-01   5.00000000000000E-02   0.00000000000000E+00   4.47265446584521E-15
      1.60000000000001E-01   5.00000000000000E-02   0.00000000000000E+00   3.06853854041923E-15
      1.50000000000001E-01   5.00000000000000E-02   0.00000000000000E+00   2.10515429466682E-15
      1.40000000000001E-01   5.00000000000000E-02   0.00000000000000E+00   1.44419506225128E-15
      1.30000000000001E-01   5.00000000000000E-02   0.00000000000000E+00   9.90744649212552E-16
      1.20000000000001E-01   5.00000000000000E-02   0.00000000000000E+00   6.79668945838883E-16
      1.10000000000001E-01   5.00000000000000E-02   0.00000000000000E+00   4.66273791591679E-16
      1.00000000000001E-01   5.00000000000000E-02   0.00000000000000E+00   3.19892282981686E-16
      9.00000000000010E-02   5.00000000000000E-02   0.00000000000000E+00   2.19483369557447E-16
      8.00000000000010E-02   5.00000000000000E-02   0.00000000000000E+00   1.50611131243333E-16
      7.00000000000012E-02   5.00000000000000E-02   0.00000000000000E+00   1.03371842861555E-16
      6.00000000000012E-02   5.00000000000000E-02   0.00000000000000E+00   7.09713624366990E-17
      5.00000000000012E-02   5.00000000000000E-02   0.00000000000000E+00   4.87487769932651E-17
      4.00000000000011E-02   5.00000000000000E-02   0.00000000000000E+00   3.35076195904056E-17
      3.00000000000011E-02   5.00000000000000E-02   0.00000000000000E+00   2.30541250681840E-17
      2.00000000000014E-02   5.00000000000000E-02   0.00000000000000E+00   1.58795833746924E-17
      1.00000000000013E-02   5.00000000000000E-02   0.00000000000000E+00   1.09663261236860E-17
      0.00000000000000E+00   5.00000000000000E-02   0.00000000000000E+00   7.59117875213410E-18
}
