DF-ISE text

Info {
  version   = 1.0
  type      = xyplot
  datasets  = [
    "vdiff(g,f)" "vdiff(d,f)" "vdiff(s,f)" "i(t1,f)" ]
  functions = [
    Voltage Voltage Voltage Current ]
}

Data {
      1.20000000000000E+00   5.00000000000000E-02   0.00000000000000E+00   6.58008698112260E-07
      1.19000000000000E+00   5.00000000000000E-02   0.00000000000000E+00   6.48433586630034E-07
      1.18000000000000E+00   5.00000000000000E-02   0.00000000000000E+00   6.38692566267048E-07
      1.17000000000000E+00   5.00000000000000E-02   0.00000000000000E+00   6.28784424165185E-07
      1.16000000000000E+00   5.00000000000000E-02   0.00000000000000E+00   6.18708230158798E-07
      1.15000000000000E+00   5.00000000000000E-02   0.00000000000000E+00   6.08463366059099E-07
      1.14000000000000E+00   5.00000000000000E-02   0.00000000000000E+00   5.98049561045876E-07
      1.13000000000000E+00   5.00000000000000E-02   0.00000000000000E+00   5.87466920900435E-07
      1.12000000000000E+00   5.00000000000000E-02   0.00000000000000E+00   5.76715985867445E-07
      1.11000000000000E+00   5.00000000000000E-02   0.00000000000000E+00   5.65797774815870E-07
      1.10000000000000E+00   5.00000000000000E-02   0.00000000000000E+00   5.54713802599640E-07
      1.09000000000000E+00   5.00000000000000E-02   0.00000000000000E+00   5.43466139104345E-07
      1.08000000000000E+00   5.00000000000000E-02   0.00000000000000E+00   5.32057392352549E-07
      1.07000000000000E+00   5.00000000000000E-02   0.00000000000000E+00   5.20490901905131E-07
      1.06000000000000E+00   5.00000000000000E-02   0.00000000000000E+00   5.08770637802061E-07
      1.05000000000000E+00   5.00000000000000E-02   0.00000000000000E+00   4.96901278427971E-07
      1.04000000000000E+00   5.00000000000000E-02   0.00000000000000E+00   4.84888244560343E-07
      1.03000000000000E+00   5.00000000000000E-02   0.00000000000000E+00   4.72737718380148E-07
      1.02000000000000E+00   5.00000000000000E-02   0.00000000000000E+00   4.60456655178390E-07
      1.01000000000000E+00   5.00000000000000E-02   0.00000000000000E+00   4.48052857016907E-07
      1.00000000000000E+00   5.00000000000000E-02   0.00000000000000E+00   4.35534908117891E-07
      9.90000000000000E-01   5.00000000000000E-02   0.00000000000000E+00   4.22912178607555E-07
      9.80000000000000E-01   5.00000000000000E-02   0.00000000000000E+00   4.10194791678940E-07
      9.70000000000000E-01   5.00000000000000E-02   0.00000000000000E+00   3.97393593266339E-07
      9.60000000000000E-01   5.00000000000000E-02   0.00000000000000E+00   3.84520102249079E-07
      9.50000000000000E-01   5.00000000000000E-02   0.00000000000000E+00   3.71586449150808E-07
      9.40000000000000E-01   5.00000000000000E-02   0.00000000000000E+00   3.58605304715791E-07
      9.30000000000000E-01   5.00000000000000E-02   0.00000000000000E+00   3.45589799805679E-07
      9.20000000000000E-01   5.00000000000000E-02   0.00000000000000E+00   3.32553437953009E-07
      9.10000000000000E-01   5.00000000000000E-02   0.00000000000000E+00   3.19510001761166E-07
      9.00000000000000E-01   5.00000000000000E-02   0.00000000000000E+00   3.06473454466713E-07
      8.90000000000000E-01   5.00000000000000E-02   0.00000000000000E+00   2.93457838757098E-07
      8.80000000000000E-01   5.00000000000000E-02   0.00000000000000E+00   2.80477176657229E-07
      8.70000000000000E-01   5.00000000000000E-02   0.00000000000000E+00   2.67545376997164E-07
      8.60000000000000E-01   5.00000000000000E-02   0.00000000000000E+00   2.54676160304331E-07
      8.50000000000000E-01   5.00000000000000E-02   0.00000000000000E+00   2.41883014200001E-07
      8.40000000000000E-01   5.00000000000000E-02   0.00000000000000E+00   2.29179194572237E-07
      8.30000000000000E-01   5.00000000000000E-02   0.00000000000000E+00   2.16577788067972E-07
      8.20000000000000E-01   5.00000000000000E-02   0.00000000000000E+00   2.04091849311614E-07
      8.10000000000000E-01   5.00000000000000E-02   0.00000000000000E+00   1.91734621849121E-07
      8.00000000000000E-01   5.00000000000000E-02   0.00000000000000E+00   1.79519845893320E-07
      7.90000000000000E-01   5.00000000000000E-02   0.00000000000000E+00   1.67462149672938E-07
      7.80000000000000E-01   5.00000000000000E-02   0.00000000000000E+00   1.55577515766269E-07
      7.70000000000000E-01   5.00000000000000E-02   0.00000000000000E+00   1.43883810087775E-07
      7.60000000000000E-01   5.00000000000000E-02   0.00000000000000E+00   1.32401359417694E-07
      7.50000000000000E-01   5.00000000000000E-02   0.00000000000000E+00   1.21153562737906E-07
      7.40000000000000E-01   5.00000000000000E-02   0.00000000000000E+00   1.10167520911987E-07
      7.30000000000000E-01   5.00000000000000E-02   0.00000000000000E+00   9.94746707889989E-08
      7.20000000000000E-01   5.00000000000000E-02   0.00000000000000E+00   8.91113808976998E-08
      7.10000000000000E-01   5.00000000000000E-02   0.00000000000000E+00   7.91194702110184E-08
      6.99999999999999E-01   5.00000000000000E-02   0.00000000000000E+00   6.95465315865956E-08
      6.89999999999999E-01   5.00000000000000E-02   0.00000000000000E+00   6.04458919680746E-08
      6.79999999999999E-01   5.00000000000000E-02   0.00000000000000E+00   5.18759212422248E-08
      6.69999999999999E-01   5.00000000000000E-02   0.00000000000000E+00   4.38982972387159E-08
      6.59999999999999E-01   5.00000000000000E-02   0.00000000000000E+00   3.65747901307277E-08
      6.49999999999999E-01   5.00000000000000E-02   0.00000000000000E+00   2.99622605026969E-08
      6.39999999999999E-01   5.00000000000000E-02   0.00000000000000E+00   2.41059957169468E-08
      6.29999999999999E-01   5.00000000000000E-02   0.00000000000000E+00   1.90322505584032E-08
      6.19999999999999E-01   5.00000000000000E-02   0.00000000000000E+00   1.47416695795040E-08
      6.09999999999999E-01   5.00000000000000E-02   0.00000000000000E+00   1.12056598046640E-08
      5.99999999999999E-01   5.00000000000000E-02   0.00000000000000E+00   8.36730460114269E-09
      5.89999999999999E-01   5.00000000000000E-02   0.00000000000000E+00   6.14707149380981E-09
      5.79999999999999E-01   5.00000000000000E-02   0.00000000000000E+00   4.45195374056423E-09
      5.69999999999999E-01   5.00000000000000E-02   0.00000000000000E+00   3.18562273346055E-09
      5.59999999999999E-01   5.00000000000000E-02   0.00000000000000E+00   2.25716315424192E-09
      5.49999999999999E-01   5.00000000000000E-02   0.00000000000000E+00   1.58688609210605E-09
      5.39999999999999E-01   5.00000000000000E-02   0.00000000000000E+00   1.10894772397841E-09
      5.29999999999999E-01   5.00000000000000E-02   0.00000000000000E+00   7.71416778476060E-10
      5.19999999999999E-01   5.00000000000000E-02   0.00000000000000E+00   5.34781476407220E-10
      5.09999999999999E-01   5.00000000000000E-02   0.00000000000000E+00   3.69787913782416E-10
      5.00000000000000E-01   5.00000000000000E-02   0.00000000000000E+00   2.55212820517351E-10
      4.90000000000000E-01   5.00000000000000E-02   0.00000000000000E+00   1.75887686229193E-10
      4.80000000000000E-01   5.00000000000000E-02   0.00000000000000E+00   1.21089047150997E-10
      4.70000000000000E-01   5.00000000000000E-02   0.00000000000000E+00   8.32956362546180E-11
      4.60000000000000E-01   5.00000000000000E-02   0.00000000000000E+00   5.72622692562645E-11
      4.50000000000000E-01   5.00000000000000E-02   0.00000000000000E+00   3.93461866665744E-11
      4.40000000000000E-01   5.00000000000000E-02   0.00000000000000E+00   2.70251129438124E-11
      4.30000000000000E-01   5.00000000000000E-02   0.00000000000000E+00   1.85564440639779E-11
      4.20000000000000E-01   5.00000000000000E-02   0.00000000000000E+00   1.27381918994332E-11
      4.10000000000000E-01   5.00000000000000E-02   0.00000000000000E+00   8.74226891955672E-12
      4.00000000000000E-01   5.00000000000000E-02   0.00000000000000E+00   5.99870085343007E-12
      3.90000000000000E-01   5.00000000000000E-02   0.00000000000000E+00   4.11544860747597E-12
      3.80000000000000E-01   5.00000000000000E-02   0.00000000000000E+00   2.82300816750903E-12
      3.70000000000000E-01   5.00000000000000E-02   0.00000000000000E+00   1.93619221312461E-12
      3.60000000000000E-01   5.00000000000000E-02   0.00000000000000E+00   1.32779610633322E-12
      3.50000000000000E-01   5.00000000000000E-02   0.00000000000000E+00   9.10469092641923E-13
      3.40000000000000E-01   5.00000000000000E-02   0.00000000000000E+00   6.24242817664782E-13
      3.30000000000000E-01   5.00000000000000E-02   0.00000000000000E+00   4.27956429150284E-13
      3.20000000000000E-01   5.00000000000000E-02   0.00000000000000E+00   2.93363409854060E-13
      3.10000000000000E-01   5.00000000000000E-02   0.00000000000000E+00   2.01082908858764E-13
      3.00000000000000E-01   5.00000000000000E-02   0.00000000000000E+00   1.37819076344201E-13
      2.90000000000000E-01   5.00000000000000E-02   0.00000000000000E+00   9.44519037880389E-14
      2.80000000000000E-01   5.00000000000000E-02   0.00000000000000E+00   6.47263333718823E-14
      2.70000000000000E-01   5.00000000000000E-02   0.00000000000000E+00   4.43529085477565E-14
      2.60000000000000E-01   5.00000000000000E-02   0.00000000000000E+00   3.03903572450322E-14
      2.50000000000000E-01   5.00000000000000E-02   0.00000000000000E+00   2.08220697749143E-14
      2.40000000000000E-01   5.00000000000000E-02   0.00000000000000E+00   1.42655397918278E-14
      2.30000000000001E-01   5.00000000000000E-02   0.00000000000000E+00   9.77306166688683E-15
      2.20000000000001E-01   5.00000000000000E-02   0.00000000000000E+00   6.69503994229061E-15
      2.10000000000001E-01   5.00000000000000E-02   0.00000000000000E+00   4.58625171516221E-15
      2.00000000000001E-01   5.00000000000000E-02   0.00000000000000E+00   3.14157156438223E-15
      1.90000000000001E-01   5.00000000000000E-02   0.00000000000000E+00   2.15190299868798E-15
      1.80000000000001E-01   5.00000000000000E-02   0.00000000000000E+00   1.47396661502322E-15
      1.70000000000001E-01   5.00000000000000E-02   0.00000000000000E+00   1.00958958906143E-15
      1.60000000000001E-01   5.00000000000000E-02   0.00000000000000E+00   6.91509579061023E-16
      1.50000000000001E-01   5.00000000000000E-02   0.00000000000000E+00   4.73644831394671E-16
      1.40000000000001E-01   5.00000000000000E-02   0.00000000000000E+00   3.24426029212493E-16
      1.30000000000001E-01   5.00000000000000E-02   0.00000000000000E+00   2.22226863114783E-16
      1.20000000000001E-01   5.00000000000000E-02   0.00000000000000E+00   1.52233030316012E-16
      1.10000000000001E-01   5.00000000000000E-02   0.00000000000000E+00   1.04296976217552E-16
      1.00000000000001E-01   5.00000000000000E-02   0.00000000000000E+00   7.14681089868173E-17
      9.00000000000010E-02   5.00000000000000E-02   0.00000000000000E+00   4.89896892191810E-17
      8.00000000000010E-02   5.00000000000000E-02   0.00000000000000E+00   3.35889594902327E-17
      7.00000000000012E-02   5.00000000000000E-02   0.00000000000000E+00   2.30438043627323E-17
      6.00000000000012E-02   5.00000000000000E-02   0.00000000000000E+00   1.57943923426949E-17
      5.00000000000012E-02   5.00000000000000E-02   0.00000000000000E+00   1.08770305264773E-17
      4.00000000000011E-02   5.00000000000000E-02   0.00000000000000E+00   7.48931913702067E-18
      3.00000000000011E-02   5.00000000000000E-02   0.00000000000000E+00   5.15810812415522E-18
      2.00000000000014E-02   5.00000000000000E-02   0.00000000000000E+00   3.57851743498885E-18
      1.00000000000013E-02   5.00000000000000E-02   0.00000000000000E+00   2.48908435690627E-18
      0.00000000000000E+00   5.00000000000000E-02   0.00000000000000E+00   1.74241444998371E-18
}
