DF-ISE text

Info {
  version   = 1.0
  type      = xyplot
  datasets  = [
    "vdiff(g,f)" "vdiff(d,f)" "vdiff(s,f)" "i(t1,f)" ]
  functions = [
    Voltage Voltage Voltage Current ]
}

Data {
      1.20000000000000E+00   5.00000000000000E-02   0.00000000000000E+00   5.57187782180670E-07
      1.19000000000000E+00   5.00000000000000E-02   0.00000000000000E+00   5.48252535099707E-07
      1.18000000000000E+00   5.00000000000000E-02   0.00000000000000E+00   5.39134705558436E-07
      1.17000000000000E+00   5.00000000000000E-02   0.00000000000000E+00   5.29832151684157E-07
      1.16000000000000E+00   5.00000000000000E-02   0.00000000000000E+00   5.20343078718812E-07
      1.15000000000000E+00   5.00000000000000E-02   0.00000000000000E+00   5.10666076574420E-07
      1.14000000000000E+00   5.00000000000000E-02   0.00000000000000E+00   5.00800152779915E-07
      1.13000000000000E+00   5.00000000000000E-02   0.00000000000000E+00   4.90744775495968E-07
      1.12000000000000E+00   5.00000000000000E-02   0.00000000000000E+00   4.80500000644604E-07
      1.11000000000000E+00   5.00000000000000E-02   0.00000000000000E+00   4.70066512774213E-07
      1.10000000000000E+00   5.00000000000000E-02   0.00000000000000E+00   4.59445663451658E-07
      1.09000000000000E+00   5.00000000000000E-02   0.00000000000000E+00   4.48639534733509E-07
      1.08000000000000E+00   5.00000000000000E-02   0.00000000000000E+00   4.37651042369839E-07
      1.07000000000000E+00   5.00000000000000E-02   0.00000000000000E+00   4.26483964732619E-07
      1.06000000000000E+00   5.00000000000000E-02   0.00000000000000E+00   4.15143100613695E-07
      1.05000000000000E+00   5.00000000000000E-02   0.00000000000000E+00   4.03634252685884E-07
      1.04000000000000E+00   5.00000000000000E-02   0.00000000000000E+00   3.91964297787537E-07
      1.03000000000000E+00   5.00000000000000E-02   0.00000000000000E+00   3.80141225852674E-07
      1.02000000000000E+00   5.00000000000000E-02   0.00000000000000E+00   3.68174180709023E-07
      1.01000000000000E+00   5.00000000000000E-02   0.00000000000000E+00   3.56073477896336E-07
      1.00000000000000E+00   5.00000000000000E-02   0.00000000000000E+00   3.43850605220708E-07
      9.90000000000000E-01   5.00000000000000E-02   0.00000000000000E+00   3.31518204731698E-07
      9.80000000000000E-01   5.00000000000000E-02   0.00000000000000E+00   3.19090035638786E-07
      9.70000000000000E-01   5.00000000000000E-02   0.00000000000000E+00   3.06580918677629E-07
      9.60000000000000E-01   5.00000000000000E-02   0.00000000000000E+00   2.94006663432132E-07
      9.50000000000000E-01   5.00000000000000E-02   0.00000000000000E+00   2.81383981050656E-07
      9.40000000000000E-01   5.00000000000000E-02   0.00000000000000E+00   2.68730385723204E-07
      9.30000000000000E-01   5.00000000000000E-02   0.00000000000000E+00   2.56064089425916E-07
      9.20000000000000E-01   5.00000000000000E-02   0.00000000000000E+00   2.43403896114942E-07
      9.10000000000000E-01   5.00000000000000E-02   0.00000000000000E+00   2.30769104055997E-07
      9.00000000000000E-01   5.00000000000000E-02   0.00000000000000E+00   2.18179428356625E-07
      8.90000000000000E-01   5.00000000000000E-02   0.00000000000000E+00   2.05654959638524E-07
      8.80000000000000E-01   5.00000000000000E-02   0.00000000000000E+00   1.93216178276412E-07
      8.70000000000000E-01   5.00000000000000E-02   0.00000000000000E+00   1.80884045554945E-07
      8.60000000000000E-01   5.00000000000000E-02   0.00000000000000E+00   1.68680192330290E-07
      8.50000000000000E-01   5.00000000000000E-02   0.00000000000000E+00   1.56627221681903E-07
      8.40000000000000E-01   5.00000000000000E-02   0.00000000000000E+00   1.44749134691000E-07
      8.30000000000000E-01   5.00000000000000E-02   0.00000000000000E+00   1.33071878616100E-07
      8.20000000000000E-01   5.00000000000000E-02   0.00000000000000E+00   1.21624004562538E-07
      8.10000000000000E-01   5.00000000000000E-02   0.00000000000000E+00   1.10437410724201E-07
      8.00000000000000E-01   5.00000000000000E-02   0.00000000000000E+00   9.95481364694352E-08
      7.90000000000000E-01   5.00000000000000E-02   0.00000000000000E+00   8.89971244566523E-08
      7.80000000000000E-01   5.00000000000000E-02   0.00000000000000E+00   7.88308811334151E-08
      7.70000000000000E-01   5.00000000000000E-02   0.00000000000000E+00   6.91018588666698E-08
      7.60000000000000E-01   5.00000000000000E-02   0.00000000000000E+00   5.98683465955264E-08
      7.50000000000000E-01   5.00000000000000E-02   0.00000000000000E+00   5.11935200502592E-08
      7.40000000000000E-01   5.00000000000000E-02   0.00000000000000E+00   4.31432264864843E-08
      7.30000000000000E-01   5.00000000000000E-02   0.00000000000000E+00   3.57820795711484E-08
      7.20000000000000E-01   5.00000000000000E-02   0.00000000000000E+00   2.91676626343665E-08
      7.10000000000000E-01   5.00000000000000E-02   0.00000000000000E+00   2.33431877505000E-08
      6.99999999999999E-01   5.00000000000000E-02   0.00000000000000E+00   1.83297816154661E-08
      6.89999999999999E-01   5.00000000000000E-02   0.00000000000000E+00   1.41203308900590E-08
      6.79999999999999E-01   5.00000000000000E-02   0.00000000000000E+00   1.06769835434650E-08
      6.69999999999999E-01   5.00000000000000E-02   0.00000000000000E+00   7.93361537258925E-09
      6.59999999999999E-01   5.00000000000000E-02   0.00000000000000E+00   5.80301860821532E-09
      6.49999999999999E-01   5.00000000000000E-02   0.00000000000000E+00   4.18698770165596E-09
      6.39999999999999E-01   5.00000000000000E-02   0.00000000000000E+00   2.98667004535804E-09
      6.29999999999999E-01   5.00000000000000E-02   0.00000000000000E+00   2.11086578779324E-09
      6.19999999999999E-01   5.00000000000000E-02   0.00000000000000E+00   1.48108638436742E-09
      6.09999999999999E-01   5.00000000000000E-02   0.00000000000000E+00   1.03341811480400E-09
      5.99999999999999E-01   5.00000000000000E-02   0.00000000000000E+00   7.18022836296876E-10
      5.89999999999999E-01   5.00000000000000E-02   0.00000000000000E+00   4.97310678549852E-10
      5.79999999999999E-01   5.00000000000000E-02   0.00000000000000E+00   3.43632795635918E-10
      5.69999999999999E-01   5.00000000000000E-02   0.00000000000000E+00   2.37027864413887E-10
      5.59999999999999E-01   5.00000000000000E-02   0.00000000000000E+00   1.63280334528254E-10
      5.49999999999999E-01   5.00000000000000E-02   0.00000000000000E+00   1.12366774482870E-10
      5.39999999999999E-01   5.00000000000000E-02   0.00000000000000E+00   7.72704039531517E-11
      5.29999999999999E-01   5.00000000000000E-02   0.00000000000000E+00   5.31047752686563E-11
      5.19999999999999E-01   5.00000000000000E-02   0.00000000000000E+00   3.64798399912644E-11
      5.09999999999999E-01   5.00000000000000E-02   0.00000000000000E+00   2.50501687010344E-11
      5.00000000000000E-01   5.00000000000000E-02   0.00000000000000E+00   1.71963335448804E-11
      4.90000000000000E-01   5.00000000000000E-02   0.00000000000000E+00   1.18018537328088E-11
      4.80000000000000E-01   5.00000000000000E-02   0.00000000000000E+00   8.09785739245913E-12
      4.70000000000000E-01   5.00000000000000E-02   0.00000000000000E+00   5.55530720652071E-12
      4.60000000000000E-01   5.00000000000000E-02   0.00000000000000E+00   3.81042876981303E-12
      4.50000000000000E-01   5.00000000000000E-02   0.00000000000000E+00   2.61321505930162E-12
      4.40000000000000E-01   5.00000000000000E-02   0.00000000000000E+00   1.79191841160575E-12
      4.30000000000000E-01   5.00000000000000E-02   0.00000000000000E+00   1.22859351777074E-12
      4.20000000000000E-01   5.00000000000000E-02   0.00000000000000E+00   8.42266291907373E-13
      4.10000000000000E-01   5.00000000000000E-02   0.00000000000000E+00   5.77358429288202E-13
      4.00000000000000E-01   5.00000000000000E-02   0.00000000000000E+00   3.95730645297065E-13
      3.90000000000000E-01   5.00000000000000E-02   0.00000000000000E+00   2.71215653702422E-13
      3.80000000000000E-01   5.00000000000000E-02   0.00000000000000E+00   1.85863124060026E-13
      3.70000000000000E-01   5.00000000000000E-02   0.00000000000000E+00   1.27361276302608E-13
      3.60000000000000E-01   5.00000000000000E-02   0.00000000000000E+00   8.72668599365139E-14
      3.50000000000000E-01   5.00000000000000E-02   0.00000000000000E+00   5.97903386178405E-14
      3.40000000000000E-01   5.00000000000000E-02   0.00000000000000E+00   4.09622896548299E-14
      3.30000000000000E-01   5.00000000000000E-02   0.00000000000000E+00   2.80614908466741E-14
      3.20000000000000E-01   5.00000000000000E-02   0.00000000000000E+00   1.92226066451451E-14
      3.10000000000000E-01   5.00000000000000E-02   0.00000000000000E+00   1.31671125139008E-14
      3.00000000000000E-01   5.00000000000000E-02   0.00000000000000E+00   9.01876896718664E-15
      2.90000000000000E-01   5.00000000000000E-02   0.00000000000000E+00   6.17709336018728E-15
      2.80000000000000E-01   5.00000000000000E-02   0.00000000000000E+00   4.23061025733535E-15
      2.70000000000000E-01   5.00000000000000E-02   0.00000000000000E+00   2.89738093574328E-15
      2.60000000000000E-01   5.00000000000000E-02   0.00000000000000E+00   1.98423785452004E-15
      2.50000000000000E-01   5.00000000000000E-02   0.00000000000000E+00   1.35884333507276E-15
      2.40000000000000E-01   5.00000000000000E-02   0.00000000000000E+00   9.30539665048268E-16
      2.30000000000001E-01   5.00000000000000E-02   0.00000000000000E+00   6.37225548417324E-16
      2.20000000000001E-01   5.00000000000000E-02   0.00000000000000E+00   4.36363250642626E-16
      2.10000000000001E-01   5.00000000000000E-02   0.00000000000000E+00   2.98816883199626E-16
      2.00000000000001E-01   5.00000000000000E-02   0.00000000000000E+00   2.04630911807662E-16
      1.90000000000001E-01   5.00000000000000E-02   0.00000000000000E+00   1.40138142991877E-16
      1.80000000000001E-01   5.00000000000000E-02   0.00000000000000E+00   9.59785740978278E-17
      1.70000000000001E-01   5.00000000000000E-02   0.00000000000000E+00   6.57423311865220E-17
      1.60000000000001E-01   5.00000000000000E-02   0.00000000000000E+00   4.50955758255547E-17
      1.50000000000001E-01   5.00000000000000E-02   0.00000000000000E+00   3.08990041550978E-17
      1.40000000000001E-01   5.00000000000000E-02   0.00000000000000E+00   2.11599829756564E-17
      1.30000000000001E-01   5.00000000000000E-02   0.00000000000000E+00   1.45392868859348E-17
      1.20000000000001E-01   5.00000000000000E-02   0.00000000000000E+00   9.96944057049889E-18
      1.10000000000001E-01   5.00000000000000E-02   0.00000000000000E+00   6.79766610277346E-18
      1.00000000000001E-01   5.00000000000000E-02   0.00000000000000E+00   4.69769970226553E-18
      9.00000000000010E-02   5.00000000000000E-02   0.00000000000000E+00   3.25146303932099E-18
      8.00000000000010E-02   5.00000000000000E-02   0.00000000000000E+00   2.25250905982534E-18
      7.00000000000012E-02   5.00000000000000E-02   0.00000000000000E+00   1.56719862594656E-18
      6.00000000000012E-02   5.00000000000000E-02   0.00000000000000E+00   1.09766014789525E-18
      5.00000000000012E-02   5.00000000000000E-02   0.00000000000000E+00   7.76243694498850E-19
      4.00000000000011E-02   5.00000000000000E-02   0.00000000000000E+00   5.55674219334541E-19
      3.00000000000011E-02   5.00000000000000E-02   0.00000000000000E+00   4.04186373667493E-19
      2.00000000000014E-02   5.00000000000000E-02   0.00000000000000E+00   3.28511724042119E-19
      1.00000000000013E-02   5.00000000000000E-02   0.00000000000000E+00   2.62112894475785E-19
      0.00000000000000E+00   5.00000000000000E-02   0.00000000000000E+00   2.15368844381055E-19
}
