DF-ISE text

Info {
  version   = 1.0
  type      = xyplot
  datasets  = [
    "vdiff(g,f)" "vdiff(d,f)" "vdiff(s,f)" "i(t1,f)" ]
  functions = [
    Voltage Voltage Voltage Current ]
}

Data {
      1.20000000000000E+00   1.00000000000000E+00   0.00000000000000E+00   3.28706161537279E-06
      1.19000000000000E+00   1.00000000000000E+00   0.00000000000000E+00   3.18282627665729E-06
      1.18000000000000E+00   1.00000000000000E+00   0.00000000000000E+00   3.07947207812894E-06
      1.17000000000000E+00   1.00000000000000E+00   0.00000000000000E+00   2.97705430213750E-06
      1.16000000000000E+00   1.00000000000000E+00   0.00000000000000E+00   2.87562811896683E-06
      1.15000000000000E+00   1.00000000000000E+00   0.00000000000000E+00   2.77524854210816E-06
      1.14000000000000E+00   1.00000000000000E+00   0.00000000000000E+00   2.67597038502625E-06
      1.13000000000000E+00   1.00000000000000E+00   0.00000000000000E+00   2.57784819928172E-06
      1.12000000000000E+00   1.00000000000000E+00   0.00000000000000E+00   2.48093619338012E-06
      1.11000000000000E+00   1.00000000000000E+00   0.00000000000000E+00   2.38528815664712E-06
      1.10000000000000E+00   1.00000000000000E+00   0.00000000000000E+00   2.29095739020949E-06
      1.09000000000000E+00   1.00000000000000E+00   0.00000000000000E+00   2.19799663693980E-06
      1.08000000000000E+00   1.00000000000000E+00   0.00000000000000E+00   2.10645793852591E-06
      1.07000000000000E+00   1.00000000000000E+00   0.00000000000000E+00   2.01639261746405E-06
      1.06000000000000E+00   1.00000000000000E+00   0.00000000000000E+00   1.92785158611655E-06
      1.05000000000000E+00   1.00000000000000E+00   0.00000000000000E+00   1.84088458295861E-06
      1.04000000000000E+00   1.00000000000000E+00   0.00000000000000E+00   1.75554004548482E-06
      1.03000000000000E+00   1.00000000000000E+00   0.00000000000000E+00   1.67186613132685E-06
      1.02000000000000E+00   1.00000000000000E+00   0.00000000000000E+00   1.58990894248332E-06
      1.01000000000000E+00   1.00000000000000E+00   0.00000000000000E+00   1.50971418043015E-06
      1.00000000000000E+00   1.00000000000000E+00   0.00000000000000E+00   1.43132624410669E-06
      9.90000000000000E-01   1.00000000000000E+00   0.00000000000000E+00   1.35478739683119E-06
      9.80000000000000E-01   1.00000000000000E+00   0.00000000000000E+00   1.28013876826086E-06
      9.70000000000000E-01   1.00000000000000E+00   0.00000000000000E+00   1.20741983264864E-06
      9.60000000000000E-01   1.00000000000000E+00   0.00000000000000E+00   1.13666785108575E-06
      9.50000000000000E-01   1.00000000000000E+00   0.00000000000000E+00   1.06791907408852E-06
      9.40000000000000E-01   1.00000000000000E+00   0.00000000000000E+00   1.00120750870661E-06
      9.30000000000000E-01   1.00000000000000E+00   0.00000000000000E+00   9.36565078172586E-07
      9.20000000000000E-01   1.00000000000000E+00   0.00000000000000E+00   8.74021668709538E-07
      9.10000000000000E-01   1.00000000000000E+00   0.00000000000000E+00   8.13605082989164E-07
      9.00000000000000E-01   1.00000000000000E+00   0.00000000000000E+00   7.55340996781754E-07
      8.90000000000000E-01   1.00000000000000E+00   0.00000000000000E+00   6.99252921442334E-07
      8.80000000000000E-01   1.00000000000000E+00   0.00000000000000E+00   6.45362172648664E-07
      8.70000000000000E-01   1.00000000000000E+00   0.00000000000000E+00   5.93687822823497E-07
      8.60000000000000E-01   1.00000000000000E+00   0.00000000000000E+00   5.44246699198230E-07
      8.50000000000000E-01   1.00000000000000E+00   0.00000000000000E+00   4.97053468446513E-07
      8.40000000000000E-01   1.00000000000000E+00   0.00000000000000E+00   4.52120449464601E-07
      8.30000000000000E-01   1.00000000000000E+00   0.00000000000000E+00   4.09457649133355E-07
      8.20000000000000E-01   1.00000000000000E+00   0.00000000000000E+00   3.69072689875619E-07
      8.10000000000000E-01   1.00000000000000E+00   0.00000000000000E+00   3.30970549112101E-07
      8.00000000000000E-01   1.00000000000000E+00   0.00000000000000E+00   2.95153420335898E-07
      7.90000000000000E-01   1.00000000000000E+00   0.00000000000000E+00   2.61620404367398E-07
      7.80000000000000E-01   1.00000000000000E+00   0.00000000000000E+00   2.30367071486811E-07
      7.70000000000000E-01   1.00000000000000E+00   0.00000000000000E+00   2.01384868832571E-07
      7.60000000000000E-01   1.00000000000000E+00   0.00000000000000E+00   1.74660346075843E-07
      7.50000000000000E-01   1.00000000000000E+00   0.00000000000000E+00   1.50174172762111E-07
      7.40000000000000E-01   1.00000000000000E+00   0.00000000000000E+00   1.27899923014287E-07
      7.30000000000000E-01   1.00000000000000E+00   0.00000000000000E+00   1.07802608975741E-07
      7.20000000000000E-01   1.00000000000000E+00   0.00000000000000E+00   8.98369553359203E-08
      7.10000000000000E-01   1.00000000000000E+00   0.00000000000000E+00   7.39454423243472E-08
      6.99999999999999E-01   1.00000000000000E+00   0.00000000000000E+00   6.00561677296389E-08
      6.89999999999999E-01   1.00000000000000E+00   0.00000000000000E+00   4.80806788549405E-08
      6.79999999999999E-01   1.00000000000000E+00   0.00000000000000E+00   3.79120553798888E-08
      6.69999999999999E-01   1.00000000000000E+00   0.00000000000000E+00   2.94236704522853E-08
      6.59999999999999E-01   1.00000000000000E+00   0.00000000000000E+00   2.24692413429682E-08
      6.49999999999999E-01   1.00000000000000E+00   0.00000000000000E+00   1.68848678654442E-08
      6.39999999999999E-01   1.00000000000000E+00   0.00000000000000E+00   1.24936028402796E-08
      6.29999999999999E-01   1.00000000000000E+00   0.00000000000000E+00   9.11257404518760E-09
      6.19999999999999E-01   1.00000000000000E+00   0.00000000000000E+00   6.56183537935471E-09
      6.09999999999999E-01   1.00000000000000E+00   0.00000000000000E+00   4.67333355330273E-09
      5.99999999999999E-01   1.00000000000000E+00   0.00000000000000E+00   3.29814474039890E-09
      5.89999999999999E-01   1.00000000000000E+00   0.00000000000000E+00   2.31069349974079E-09
      5.79999999999999E-01   1.00000000000000E+00   0.00000000000000E+00   1.60969927379232E-09
      5.69999999999999E-01   1.00000000000000E+00   0.00000000000000E+00   1.11651175225289E-09
      5.59999999999999E-01   1.00000000000000E+00   0.00000000000000E+00   7.71911070121240E-10
      5.49999999999999E-01   1.00000000000000E+00   0.00000000000000E+00   5.32377291532764E-10
      5.39999999999999E-01   1.00000000000000E+00   0.00000000000000E+00   3.66516604862816E-10
      5.29999999999999E-01   1.00000000000000E+00   0.00000000000000E+00   2.51995228414809E-10
      5.19999999999999E-01   1.00000000000000E+00   0.00000000000000E+00   1.73086753172655E-10
      5.09999999999999E-01   1.00000000000000E+00   0.00000000000000E+00   1.18799870252940E-10
      5.00000000000000E-01   1.00000000000000E+00   0.00000000000000E+00   8.14942088032318E-11
      4.90000000000000E-01   1.00000000000000E+00   0.00000000000000E+00   5.58795161021318E-11
      4.80000000000000E-01   1.00000000000000E+00   0.00000000000000E+00   3.83031573270723E-11
      4.70000000000000E-01   1.00000000000000E+00   0.00000000000000E+00   2.62483723846850E-11
      4.60000000000000E-01   1.00000000000000E+00   0.00000000000000E+00   1.79836527814567E-11
      4.50000000000000E-01   1.00000000000000E+00   0.00000000000000E+00   1.23190530968623E-11
      4.40000000000000E-01   1.00000000000000E+00   0.00000000000000E+00   8.43747911776885E-12
      4.30000000000000E-01   1.00000000000000E+00   0.00000000000000E+00   5.77820836987759E-12
      4.20000000000000E-01   1.00000000000000E+00   0.00000000000000E+00   3.95663333573613E-12
      4.10000000000000E-01   1.00000000000000E+00   0.00000000000000E+00   2.70904364683089E-12
      4.00000000000000E-01   1.00000000000000E+00   0.00000000000000E+00   1.85467633855604E-12
      3.90000000000000E-01   1.00000000000000E+00   0.00000000000000E+00   1.26965493766335E-12
      3.80000000000000E-01   1.00000000000000E+00   0.00000000000000E+00   8.69103751710370E-13
      3.70000000000000E-01   1.00000000000000E+00   0.00000000000000E+00   5.94878578416000E-13
      3.60000000000000E-01   1.00000000000000E+00   0.00000000000000E+00   4.07153270022524E-13
      3.50000000000000E-01   1.00000000000000E+00   0.00000000000000E+00   2.78652068418711E-13
      3.40000000000000E-01   1.00000000000000E+00   0.00000000000000E+00   1.90696640019089E-13
      3.30000000000000E-01   1.00000000000000E+00   0.00000000000000E+00   1.30497382198018E-13
      3.20000000000000E-01   1.00000000000000E+00   0.00000000000000E+00   8.92976539997825E-14
      3.10000000000000E-01   1.00000000000000E+00   0.00000000000000E+00   6.11025427892420E-14
      3.00000000000000E-01   1.00000000000000E+00   0.00000000000000E+00   4.18081587663585E-14
      2.90000000000000E-01   1.00000000000000E+00   0.00000000000000E+00   2.86053303229704E-14
      2.80000000000000E-01   1.00000000000000E+00   0.00000000000000E+00   1.95712644730489E-14
      2.70000000000000E-01   1.00000000000000E+00   0.00000000000000E+00   1.33899480642351E-14
      2.60000000000000E-01   1.00000000000000E+00   0.00000000000000E+00   9.16071676021333E-15
      2.50000000000000E-01   1.00000000000000E+00   0.00000000000000E+00   6.26719983219506E-15
      2.40000000000000E-01   1.00000000000000E+00   0.00000000000000E+00   4.28760548902150E-15
      2.30000000000001E-01   1.00000000000000E+00   0.00000000000000E+00   2.93331022499992E-15
      2.20000000000001E-01   1.00000000000000E+00   0.00000000000000E+00   2.00682489582652E-15
      2.10000000000001E-01   1.00000000000000E+00   0.00000000000000E+00   1.37302511861778E-15
      2.00000000000001E-01   1.00000000000000E+00   0.00000000000000E+00   9.39460841931426E-16
      1.90000000000001E-01   1.00000000000000E+00   0.00000000000000E+00   6.42881080819066E-16
      1.80000000000001E-01   1.00000000000000E+00   0.00000000000000E+00   4.40012573729065E-16
      1.70000000000001E-01   1.00000000000000E+00   0.00000000000000E+00   3.01250538696284E-16
      1.60000000000001E-01   1.00000000000000E+00   0.00000000000000E+00   2.06341100501261E-16
      1.50000000000001E-01   1.00000000000000E+00   0.00000000000000E+00   1.41427056746061E-16
      1.40000000000001E-01   1.00000000000000E+00   0.00000000000000E+00   9.70287412618148E-17
      1.30000000000001E-01   1.00000000000000E+00   0.00000000000000E+00   6.66483084761008E-17
      1.20000000000001E-01   1.00000000000000E+00   0.00000000000000E+00   4.58950996377187E-17
      1.10000000000001E-01   1.00000000000000E+00   0.00000000000000E+00   3.16870193702367E-17
      1.00000000000001E-01   1.00000000000000E+00   0.00000000000000E+00   2.19813378622959E-17
      9.00000000000010E-02   1.00000000000000E+00   0.00000000000000E+00   1.53518343077145E-17
      8.00000000000010E-02   1.00000000000000E+00   0.00000000000000E+00   1.07887346046488E-17
      7.00000000000012E-02   1.00000000000000E+00   0.00000000000000E+00   7.64446225920624E-18
      6.00000000000012E-02   1.00000000000000E+00   0.00000000000000E+00   5.54754331907781E-18
      5.00000000000012E-02   1.00000000000000E+00   0.00000000000000E+00   4.08305180320203E-18
      4.00000000000011E-02   1.00000000000000E+00   0.00000000000000E+00   2.95270156396753E-18
      3.00000000000011E-02   1.00000000000000E+00   0.00000000000000E+00   2.25012454873074E-18
      2.00000000000014E-02   1.00000000000000E+00   0.00000000000000E+00   1.70281240834528E-18
      1.00000000000013E-02   1.00000000000000E+00   0.00000000000000E+00   1.38383787822887E-18
      0.00000000000000E+00   1.00000000000000E+00   0.00000000000000E+00   1.07246208331103E-18
}
