DF-ISE text

Info {
  version   = 1.0
  type      = xyplot
  datasets  = [
    "vdiff(g,f)" "vdiff(d,f)" "vdiff(s,f)" "i(t1,f)" ]
  functions = [
    Voltage Voltage Voltage Current ]
}

Data {
      1.20000000000000E+00   1.00000000000000E+00   0.00000000000000E+00   3.31622652020519E-06
      1.19000000000000E+00   1.00000000000000E+00   0.00000000000000E+00   3.21069008107805E-06
      1.18000000000000E+00   1.00000000000000E+00   0.00000000000000E+00   3.10605720514843E-06
      1.17000000000000E+00   1.00000000000000E+00   0.00000000000000E+00   3.00238623576448E-06
      1.16000000000000E+00   1.00000000000000E+00   0.00000000000000E+00   2.89973534041815E-06
      1.15000000000000E+00   1.00000000000000E+00   0.00000000000000E+00   2.79816244018275E-06
      1.14000000000000E+00   1.00000000000000E+00   0.00000000000000E+00   2.69772513493787E-06
      1.13000000000000E+00   1.00000000000000E+00   0.00000000000000E+00   2.59848062423640E-06
      1.12000000000000E+00   1.00000000000000E+00   0.00000000000000E+00   2.50048562359934E-06
      1.11000000000000E+00   1.00000000000000E+00   0.00000000000000E+00   2.40379627574555E-06
      1.10000000000000E+00   1.00000000000000E+00   0.00000000000000E+00   2.30846805547013E-06
      1.09000000000000E+00   1.00000000000000E+00   0.00000000000000E+00   2.21455566699765E-06
      1.08000000000000E+00   1.00000000000000E+00   0.00000000000000E+00   2.12211294416827E-06
      1.07000000000000E+00   1.00000000000000E+00   0.00000000000000E+00   2.03119250602688E-06
      1.06000000000000E+00   1.00000000000000E+00   0.00000000000000E+00   1.94184663578150E-06
      1.05000000000000E+00   1.00000000000000E+00   0.00000000000000E+00   1.85412604957935E-06
      1.04000000000000E+00   1.00000000000000E+00   0.00000000000000E+00   1.76808009524128E-06
      1.03000000000000E+00   1.00000000000000E+00   0.00000000000000E+00   1.68375637231741E-06
      1.02000000000000E+00   1.00000000000000E+00   0.00000000000000E+00   1.60120134039350E-06
      1.01000000000000E+00   1.00000000000000E+00   0.00000000000000E+00   1.52046000719344E-06
      1.00000000000000E+00   1.00000000000000E+00   0.00000000000000E+00   1.44157611471172E-06
      9.90000000000000E-01   1.00000000000000E+00   0.00000000000000E+00   1.36459094862575E-06
      9.80000000000000E-01   1.00000000000000E+00   0.00000000000000E+00   1.28954349151679E-06
      9.70000000000000E-01   1.00000000000000E+00   0.00000000000000E+00   1.21647136792027E-06
      9.60000000000000E-01   1.00000000000000E+00   0.00000000000000E+00   1.14540952181771E-06
      9.50000000000000E-01   1.00000000000000E+00   0.00000000000000E+00   1.07639132300702E-06
      9.40000000000000E-01   1.00000000000000E+00   0.00000000000000E+00   1.00944774911401E-06
      9.30000000000000E-01   1.00000000000000E+00   0.00000000000000E+00   9.44607295726469E-07
      9.20000000000000E-01   1.00000000000000E+00   0.00000000000000E+00   8.81896133046563E-07
      9.10000000000000E-01   1.00000000000000E+00   0.00000000000000E+00   8.21338100741488E-07
      9.00000000000000E-01   1.00000000000000E+00   0.00000000000000E+00   7.62954708251943E-07
      8.90000000000000E-01   1.00000000000000E+00   0.00000000000000E+00   7.06765130650462E-07
      8.80000000000000E-01   1.00000000000000E+00   0.00000000000000E+00   6.52786228058702E-07
      8.70000000000000E-01   1.00000000000000E+00   0.00000000000000E+00   6.01032689953266E-07
      8.60000000000000E-01   1.00000000000000E+00   0.00000000000000E+00   5.51516804765564E-07
      8.50000000000000E-01   1.00000000000000E+00   0.00000000000000E+00   5.04248831397803E-07
      8.40000000000000E-01   1.00000000000000E+00   0.00000000000000E+00   4.59236665449583E-07
      8.30000000000000E-01   1.00000000000000E+00   0.00000000000000E+00   4.16486157089146E-07
      8.20000000000000E-01   1.00000000000000E+00   0.00000000000000E+00   3.76000790092638E-07
      8.10000000000000E-01   1.00000000000000E+00   0.00000000000000E+00   3.37781667361672E-07
      8.00000000000000E-01   1.00000000000000E+00   0.00000000000000E+00   3.01827368733445E-07
      7.90000000000000E-01   1.00000000000000E+00   0.00000000000000E+00   2.68133700809343E-07
      7.80000000000000E-01   1.00000000000000E+00   0.00000000000000E+00   2.36693334274944E-07
      7.70000000000000E-01   1.00000000000000E+00   0.00000000000000E+00   2.07495307128294E-07
      7.60000000000000E-01   1.00000000000000E+00   0.00000000000000E+00   1.80524370070389E-07
      7.50000000000000E-01   1.00000000000000E+00   0.00000000000000E+00   1.55760148819407E-07
      7.40000000000000E-01   1.00000000000000E+00   0.00000000000000E+00   1.33176097219663E-07
      7.30000000000000E-01   1.00000000000000E+00   0.00000000000000E+00   1.12738217388739E-07
      7.20000000000000E-01   1.00000000000000E+00   0.00000000000000E+00   9.44035360733939E-08
      7.10000000000000E-01   1.00000000000000E+00   0.00000000000000E+00   7.81183238165759E-08
      6.99999999999999E-01   1.00000000000000E+00   0.00000000000000E+00   6.38160982994300E-08
      6.89999999999999E-01   1.00000000000000E+00   0.00000000000000E+00   5.14155214988737E-08
      6.79999999999999E-01   1.00000000000000E+00   0.00000000000000E+00   4.08183971627908E-08
      6.69999999999999E-01   1.00000000000000E+00   0.00000000000000E+00   3.19081244214777E-08
      6.59999999999999E-01   1.00000000000000E+00   0.00000000000000E+00   2.45491481045993E-08
      6.49999999999999E-01   1.00000000000000E+00   0.00000000000000E+00   1.85880749613901E-08
      6.39999999999999E-01   1.00000000000000E+00   0.00000000000000E+00   1.38570790900627E-08
      6.29999999999999E-01   1.00000000000000E+00   0.00000000000000E+00   1.01798468727165E-08
      6.19999999999999E-01   1.00000000000000E+00   0.00000000000000E+00   7.37958811540636E-09
      6.09999999999999E-01   1.00000000000000E+00   0.00000000000000E+00   5.28780735327394E-09
      5.99999999999999E-01   1.00000000000000E+00   0.00000000000000E+00   3.75206746281473E-09
      5.89999999999999E-01   1.00000000000000E+00   0.00000000000000E+00   2.64124057113458E-09
      5.79999999999999E-01   1.00000000000000E+00   0.00000000000000E+00   1.84761280694440E-09
      5.69999999999999E-01   1.00000000000000E+00   0.00000000000000E+00   1.28617746889772E-09
      5.59999999999999E-01   1.00000000000000E+00   0.00000000000000E+00   8.92042446835575E-10
      5.49999999999999E-01   1.00000000000000E+00   0.00000000000000E+00   6.16970510859221E-10
      5.39999999999999E-01   1.00000000000000E+00   0.00000000000000E+00   4.25836871135006E-10
      5.29999999999999E-01   1.00000000000000E+00   0.00000000000000E+00   2.93461607107958E-10
      5.19999999999999E-01   1.00000000000000E+00   0.00000000000000E+00   2.02003073304263E-10
      5.09999999999999E-01   1.00000000000000E+00   0.00000000000000E+00   1.38927283014445E-10
      5.00000000000000E-01   1.00000000000000E+00   0.00000000000000E+00   9.54840014535837E-11
      4.90000000000000E-01   1.00000000000000E+00   0.00000000000000E+00   6.55923515916465E-11
      4.80000000000000E-01   1.00000000000000E+00   0.00000000000000E+00   4.50405285842602E-11
      4.70000000000000E-01   1.00000000000000E+00   0.00000000000000E+00   3.09183791955387E-11
      4.60000000000000E-01   1.00000000000000E+00   0.00000000000000E+00   2.12187072567658E-11
      4.50000000000000E-01   1.00000000000000E+00   0.00000000000000E+00   1.45589282159387E-11
      4.40000000000000E-01   1.00000000000000E+00   0.00000000000000E+00   9.98763535889738E-12
      4.30000000000000E-01   1.00000000000000E+00   0.00000000000000E+00   6.85061831959645E-12
      4.20000000000000E-01   1.00000000000000E+00   0.00000000000000E+00   4.69828318946832E-12
      4.10000000000000E-01   1.00000000000000E+00   0.00000000000000E+00   3.22179273445651E-12
      4.00000000000000E-01   1.00000000000000E+00   0.00000000000000E+00   2.20907420296083E-12
      3.90000000000000E-01   1.00000000000000E+00   0.00000000000000E+00   1.51454303729525E-12
      3.80000000000000E-01   1.00000000000000E+00   0.00000000000000E+00   1.03828147506414E-12
      3.70000000000000E-01   1.00000000000000E+00   0.00000000000000E+00   7.11727534860317E-13
      3.60000000000000E-01   1.00000000000000E+00   0.00000000000000E+00   4.87843122854735E-13
      3.50000000000000E-01   1.00000000000000E+00   0.00000000000000E+00   3.34361776939889E-13
      3.40000000000000E-01   1.00000000000000E+00   0.00000000000000E+00   2.29152765155525E-13
      3.30000000000000E-01   1.00000000000000E+00   0.00000000000000E+00   1.57038980756856E-13
      3.20000000000000E-01   1.00000000000000E+00   0.00000000000000E+00   1.07613176898813E-13
      3.10000000000000E-01   1.00000000000000E+00   0.00000000000000E+00   7.37395904041316E-14
      3.00000000000000E-01   1.00000000000000E+00   0.00000000000000E+00   5.05260001243906E-14
      2.90000000000000E-01   1.00000000000000E+00   0.00000000000000E+00   3.46186180344597E-14
      2.80000000000000E-01   1.00000000000000E+00   0.00000000000000E+00   2.37184841741643E-14
      2.70000000000000E-01   1.00000000000000E+00   0.00000000000000E+00   1.62498181964168E-14
      2.60000000000000E-01   1.00000000000000E+00   0.00000000000000E+00   1.11326032517629E-14
      2.50000000000000E-01   1.00000000000000E+00   0.00000000000000E+00   7.62665861835803E-15
      2.40000000000000E-01   1.00000000000000E+00   0.00000000000000E+00   5.22473829772838E-15
      2.30000000000001E-01   1.00000000000000E+00   0.00000000000000E+00   3.57924706792904E-15
      2.20000000000001E-01   1.00000000000000E+00   0.00000000000000E+00   2.45200577293288E-15
      2.10000000000001E-01   1.00000000000000E+00   0.00000000000000E+00   1.67981839221443E-15
      2.00000000000001E-01   1.00000000000000E+00   0.00000000000000E+00   1.15087134438740E-15
      1.90000000000001E-01   1.00000000000000E+00   0.00000000000000E+00   7.88558277001173E-16
      1.80000000000001E-01   1.00000000000000E+00   0.00000000000000E+00   5.40395739263205E-16
      1.70000000000001E-01   1.00000000000000E+00   0.00000000000000E+00   3.70428295458843E-16
      1.60000000000001E-01   1.00000000000000E+00   0.00000000000000E+00   2.54024382393066E-16
      1.50000000000001E-01   1.00000000000000E+00   0.00000000000000E+00   1.74308586462231E-16
      1.40000000000001E-01   1.00000000000000E+00   0.00000000000000E+00   1.19480134745381E-16
      1.30000000000001E-01   1.00000000000000E+00   0.00000000000000E+00   8.23360150851272E-17
      1.20000000000001E-01   1.00000000000000E+00   0.00000000000000E+00   5.67414716643413E-17
      1.10000000000001E-01   1.00000000000000E+00   0.00000000000000E+00   3.92191757783250E-17
      1.00000000000001E-01   1.00000000000000E+00   0.00000000000000E+00   2.63174866590471E-17
      9.00000000000010E-02   1.00000000000000E+00   0.00000000000000E+00   1.90187386112769E-17
      8.00000000000010E-02   1.00000000000000E+00   0.00000000000000E+00   1.34022386438823E-17
      7.00000000000012E-02   1.00000000000000E+00   0.00000000000000E+00   9.52854009401212E-18
      6.00000000000012E-02   1.00000000000000E+00   0.00000000000000E+00  -7.10776391861350E-18
      5.00000000000012E-02   1.00000000000000E+00   0.00000000000000E+00   5.04040413352009E-18
      4.00000000000011E-02   1.00000000000000E+00   0.00000000000000E+00   3.59520030774012E-18
      3.00000000000011E-02   1.00000000000000E+00   0.00000000000000E+00   2.68766099089042E-18
      2.00000000000014E-02   1.00000000000000E+00   0.00000000000000E+00   1.82702988332961E-17
      1.00000000000013E-02   1.00000000000000E+00   0.00000000000000E+00   1.63031604595778E-18
      0.00000000000000E+00   1.00000000000000E+00   0.00000000000000E+00   1.42289858675455E-18
}
