DF-ISE text

Info {
  version   = 1.0
  type      = xyplot
  datasets  = [
    "vdiff(g,f)" "vdiff(d,f)" "vdiff(s,f)" "i(t1,f)" ]
  functions = [
    Voltage Voltage Voltage Current ]
}

Data {
      1.20000000000000E+00   1.00000000000000E+00   0.00000000000000E+00   4.22424009507055E-06
      1.19000000000000E+00   1.00000000000000E+00   0.00000000000000E+00   4.10567679979185E-06
      1.18000000000000E+00   1.00000000000000E+00   0.00000000000000E+00   3.98802020226657E-06
      1.17000000000000E+00   1.00000000000000E+00   0.00000000000000E+00   3.87132289632294E-06
      1.16000000000000E+00   1.00000000000000E+00   0.00000000000000E+00   3.75563711659854E-06
      1.15000000000000E+00   1.00000000000000E+00   0.00000000000000E+00   3.64101469048095E-06
      1.14000000000000E+00   1.00000000000000E+00   0.00000000000000E+00   3.52750698701224E-06
      1.13000000000000E+00   1.00000000000000E+00   0.00000000000000E+00   3.41516486273249E-06
      1.12000000000000E+00   1.00000000000000E+00   0.00000000000000E+00   3.30403860444706E-06
      1.11000000000000E+00   1.00000000000000E+00   0.00000000000000E+00   3.19417786890883E-06
      1.10000000000000E+00   1.00000000000000E+00   0.00000000000000E+00   3.08563161938799E-06
      1.09000000000000E+00   1.00000000000000E+00   0.00000000000000E+00   2.97844805898183E-06
      1.08000000000000E+00   1.00000000000000E+00   0.00000000000000E+00   2.87267456020221E-06
      1.07000000000000E+00   1.00000000000000E+00   0.00000000000000E+00   2.76835759019354E-06
      1.06000000000000E+00   1.00000000000000E+00   0.00000000000000E+00   2.66554263495476E-06
      1.05000000000000E+00   1.00000000000000E+00   0.00000000000000E+00   2.56427404423840E-06
      1.04000000000000E+00   1.00000000000000E+00   0.00000000000000E+00   2.46459508330114E-06
      1.03000000000000E+00   1.00000000000000E+00   0.00000000000000E+00   2.36654822941197E-06
      1.02000000000000E+00   1.00000000000000E+00   0.00000000000000E+00   2.27017437747289E-06
      1.01000000000000E+00   1.00000000000000E+00   0.00000000000000E+00   2.17551303503368E-06
      1.00000000000000E+00   1.00000000000000E+00   0.00000000000000E+00   2.08260205677104E-06
      9.90000000000000E-01   1.00000000000000E+00   0.00000000000000E+00   1.99147811151490E-06
      9.80000000000000E-01   1.00000000000000E+00   0.00000000000000E+00   1.90217588639074E-06
      9.70000000000000E-01   1.00000000000000E+00   0.00000000000000E+00   1.81472953966104E-06
      9.60000000000000E-01   1.00000000000000E+00   0.00000000000000E+00   1.72917109086616E-06
      9.50000000000000E-01   1.00000000000000E+00   0.00000000000000E+00   1.64553063620906E-06
      9.40000000000000E-01   1.00000000000000E+00   0.00000000000000E+00   1.56383634613175E-06
      9.30000000000000E-01   1.00000000000000E+00   0.00000000000000E+00   1.48411480587789E-06
      9.20000000000000E-01   1.00000000000000E+00   0.00000000000000E+00   1.40639102689361E-06
      9.10000000000000E-01   1.00000000000000E+00   0.00000000000000E+00   1.33068783467551E-06
      9.00000000000000E-01   1.00000000000000E+00   0.00000000000000E+00   1.25702694488620E-06
      8.90000000000000E-01   1.00000000000000E+00   0.00000000000000E+00   1.18542798384661E-06
      8.80000000000000E-01   1.00000000000000E+00   0.00000000000000E+00   1.11590881308694E-06
      8.70000000000000E-01   1.00000000000000E+00   0.00000000000000E+00   1.04848562991107E-06
      8.60000000000000E-01   1.00000000000000E+00   0.00000000000000E+00   9.83173030746500E-07
      8.50000000000000E-01   1.00000000000000E+00   0.00000000000000E+00   9.19984081303344E-07
      8.40000000000000E-01   1.00000000000000E+00   0.00000000000000E+00   8.58930394212087E-07
      8.30000000000000E-01   1.00000000000000E+00   0.00000000000000E+00   8.00022210490433E-07
      8.20000000000000E-01   1.00000000000000E+00   0.00000000000000E+00   7.43268452702731E-07
      8.10000000000000E-01   1.00000000000000E+00   0.00000000000000E+00   6.88676964221298E-07
      8.00000000000000E-01   1.00000000000000E+00   0.00000000000000E+00   6.36254388289937E-07
      7.90000000000000E-01   1.00000000000000E+00   0.00000000000000E+00   5.86006353703408E-07
      7.80000000000000E-01   1.00000000000000E+00   0.00000000000000E+00   5.37937554714317E-07
      7.70000000000000E-01   1.00000000000000E+00   0.00000000000000E+00   4.92051658381238E-07
      7.60000000000000E-01   1.00000000000000E+00   0.00000000000000E+00   4.48351451721854E-07
      7.50000000000000E-01   1.00000000000000E+00   0.00000000000000E+00   4.06838599353362E-07
      7.40000000000000E-01   1.00000000000000E+00   0.00000000000000E+00   3.67513581802545E-07
      7.30000000000000E-01   1.00000000000000E+00   0.00000000000000E+00   3.30375509015161E-07
      7.20000000000000E-01   1.00000000000000E+00   0.00000000000000E+00   2.95421845723755E-07
      7.10000000000000E-01   1.00000000000000E+00   0.00000000000000E+00   2.62648043878356E-07
      6.99999999999999E-01   1.00000000000000E+00   0.00000000000000E+00   2.32047070437473E-07
      6.89999999999999E-01   1.00000000000000E+00   0.00000000000000E+00   2.03608816593470E-07
      6.79999999999999E-01   1.00000000000000E+00   0.00000000000000E+00   1.77319371724921E-07
      6.69999999999999E-01   1.00000000000000E+00   0.00000000000000E+00   1.53160142109116E-07
      6.59999999999999E-01   1.00000000000000E+00   0.00000000000000E+00   1.31106791133304E-07
      6.49999999999999E-01   1.00000000000000E+00   0.00000000000000E+00   1.11127976869330E-07
      6.39999999999999E-01   1.00000000000000E+00   0.00000000000000E+00   9.31838690689442E-08
      6.29999999999999E-01   1.00000000000000E+00   0.00000000000000E+00   7.72244312526524E-08
      6.19999999999999E-01   1.00000000000000E+00   0.00000000000000E+00   6.31874973926543E-08
      6.09999999999999E-01   1.00000000000000E+00   0.00000000000000E+00   5.09967268280608E-08
      5.99999999999999E-01   1.00000000000000E+00   0.00000000000000E+00   4.05596288603649E-08
      5.89999999999999E-01   1.00000000000000E+00   0.00000000000000E+00   3.17659822065572E-08
      5.79999999999999E-01   1.00000000000000E+00   0.00000000000000E+00   2.44871555816375E-08
      5.69999999999999E-01   1.00000000000000E+00   0.00000000000000E+00   1.85769710669561E-08
      5.59999999999999E-01   1.00000000000000E+00   0.00000000000000E+00   1.38747319428922E-08
      5.49999999999999E-01   1.00000000000000E+00   0.00000000000000E+00   1.02107137301515E-08
      5.39999999999999E-01   1.00000000000000E+00   0.00000000000000E+00   7.41374541759664E-09
      5.29999999999999E-01   1.00000000000000E+00   0.00000000000000E+00   5.31969667232424E-09
      5.19999999999999E-01   1.00000000000000E+00   0.00000000000000E+00   3.77918070340048E-09
      5.09999999999999E-01   1.00000000000000E+00   0.00000000000000E+00   2.66295684566481E-09
      5.00000000000000E-01   1.00000000000000E+00   0.00000000000000E+00   1.86431331111736E-09
      4.90000000000000E-01   1.00000000000000E+00   0.00000000000000E+00   1.29866025171129E-09
      4.80000000000000E-01   1.00000000000000E+00   0.00000000000000E+00   9.01186710447314E-10
      4.70000000000000E-01   1.00000000000000E+00   0.00000000000000E+00   6.23574153267797E-10
      4.60000000000000E-01   1.00000000000000E+00   0.00000000000000E+00   4.30557709462745E-10
      4.50000000000000E-01   1.00000000000000E+00   0.00000000000000E+00   2.96812308748160E-10
      4.40000000000000E-01   1.00000000000000E+00   0.00000000000000E+00   2.04369210304535E-10
      4.30000000000000E-01   1.00000000000000E+00   0.00000000000000E+00   1.40592116664857E-10
      4.20000000000000E-01   1.00000000000000E+00   0.00000000000000E+00   9.66523648013945E-11
      4.10000000000000E-01   1.00000000000000E+00   0.00000000000000E+00   6.64107709325863E-11
      4.00000000000000E-01   1.00000000000000E+00   0.00000000000000E+00   4.56130407289983E-11
      3.90000000000000E-01   1.00000000000000E+00   0.00000000000000E+00   3.13184693028054E-11
      3.80000000000000E-01   1.00000000000000E+00   0.00000000000000E+00   2.14980915653134E-11
      3.70000000000000E-01   1.00000000000000E+00   0.00000000000000E+00   1.47539088331169E-11
      3.60000000000000E-01   1.00000000000000E+00   0.00000000000000E+00   1.01236474017489E-11
      3.50000000000000E-01   1.00000000000000E+00   0.00000000000000E+00   6.94545906753734E-12
      3.40000000000000E-01   1.00000000000000E+00   0.00000000000000E+00   4.76439333946250E-12
      3.30000000000000E-01   1.00000000000000E+00   0.00000000000000E+00   3.26786215935425E-12
      3.20000000000000E-01   1.00000000000000E+00   0.00000000000000E+00   2.24116933866421E-12
      3.10000000000000E-01   1.00000000000000E+00   0.00000000000000E+00   1.53689696294536E-12
      3.00000000000000E-01   1.00000000000000E+00   0.00000000000000E+00   1.05384687393835E-12
      2.90000000000000E-01   1.00000000000000E+00   0.00000000000000E+00   7.22563324049692E-13
      2.80000000000000E-01   1.00000000000000E+00   0.00000000000000E+00   4.95384587525723E-13
      2.70000000000000E-01   1.00000000000000E+00   0.00000000000000E+00   3.39609205018923E-13
      2.60000000000000E-01   1.00000000000000E+00   0.00000000000000E+00   2.32803112142982E-13
      2.50000000000000E-01   1.00000000000000E+00   0.00000000000000E+00   1.59577736223663E-13
      2.40000000000000E-01   1.00000000000000E+00   0.00000000000000E+00   1.09378443298080E-13
      2.30000000000001E-01   1.00000000000000E+00   0.00000000000000E+00   7.49667689418366E-14
      2.20000000000001E-01   1.00000000000000E+00   0.00000000000000E+00   5.13789461744519E-14
      2.10000000000001E-01   1.00000000000000E+00   0.00000000000000E+00   3.52113577869318E-14
      2.00000000000001E-01   1.00000000000000E+00   0.00000000000000E+00   2.41303480201373E-14
      1.90000000000001E-01   1.00000000000000E+00   0.00000000000000E+00   1.65359837673056E-14
      1.80000000000001E-01   1.00000000000000E+00   0.00000000000000E+00   1.13314389163290E-14
      1.70000000000001E-01   1.00000000000000E+00   0.00000000000000E+00   7.76483753583852E-15
      1.60000000000001E-01   1.00000000000000E+00   0.00000000000000E+00   5.32079924827982E-15
      1.50000000000001E-01   1.00000000000000E+00   0.00000000000000E+00   3.64607318108039E-15
      1.40000000000001E-01   1.00000000000000E+00   0.00000000000000E+00   2.49854954955313E-15
      1.30000000000001E-01   1.00000000000000E+00   0.00000000000000E+00   1.71230186711818E-15
      1.20000000000001E-01   1.00000000000000E+00   0.00000000000000E+00   1.17362094000621E-15
      1.10000000000001E-01   1.00000000000000E+00   0.00000000000000E+00   8.04584941554535E-16
      1.00000000000001E-01   1.00000000000000E+00   0.00000000000000E+00   5.51798752750244E-16
      9.00000000000010E-02   1.00000000000000E+00   0.00000000000000E+00   3.76810193468459E-16
      8.00000000000010E-02   1.00000000000000E+00   0.00000000000000E+00   2.60128376819276E-16
      7.00000000000012E-02   1.00000000000000E+00   0.00000000000000E+00   1.78421701447942E-16
      6.00000000000012E-02   1.00000000000000E+00   0.00000000000000E+00   1.23401392163916E-16
      5.00000000000012E-02   1.00000000000000E+00   0.00000000000000E+00   8.53152000514796E-17
      4.00000000000011E-02   1.00000000000000E+00   0.00000000000000E+00   5.92724399060821E-17
      3.00000000000011E-02   1.00000000000000E+00   0.00000000000000E+00   4.14351988526174E-17
      2.00000000000014E-02   1.00000000000000E+00   0.00000000000000E+00   2.92172787683448E-17
      1.00000000000013E-02   1.00000000000000E+00   0.00000000000000E+00  -8.58301189037690E-17
      0.00000000000000E+00   1.00000000000000E+00   0.00000000000000E+00   1.51693483641378E-17
}
