DF-ISE text

Info {
  version   = 1.0
  type      = xyplot
  datasets  = [
    "vdiff(g,f)" "vdiff(d,f)" "vdiff(s,f)" "i(t1,f)" ]
  functions = [
    Voltage Voltage Voltage Current ]
}

Data {
      1.20000000000000E+00   1.00000000000000E+00   0.00000000000000E+00   3.33626219407694E-06
      1.19000000000000E+00   1.00000000000000E+00   0.00000000000000E+00   3.23043926721806E-06
      1.18000000000000E+00   1.00000000000000E+00   0.00000000000000E+00   3.12551696329500E-06
      1.17000000000000E+00   1.00000000000000E+00   0.00000000000000E+00   3.02155232279898E-06
      1.16000000000000E+00   1.00000000000000E+00   0.00000000000000E+00   2.91860224208170E-06
      1.15000000000000E+00   1.00000000000000E+00   0.00000000000000E+00   2.81672341155518E-06
      1.14000000000000E+00   1.00000000000000E+00   0.00000000000000E+00   2.71597225056916E-06
      1.13000000000000E+00   1.00000000000000E+00   0.00000000000000E+00   2.61640483928271E-06
      1.12000000000000E+00   1.00000000000000E+00   0.00000000000000E+00   2.51807684774074E-06
      1.11000000000000E+00   1.00000000000000E+00   0.00000000000000E+00   2.42104346093428E-06
      1.10000000000000E+00   1.00000000000000E+00   0.00000000000000E+00   2.32535929749942E-06
      1.09000000000000E+00   1.00000000000000E+00   0.00000000000000E+00   2.23107831830438E-06
      1.08000000000000E+00   1.00000000000000E+00   0.00000000000000E+00   2.13825365139870E-06
      1.07000000000000E+00   1.00000000000000E+00   0.00000000000000E+00   2.04693773906343E-06
      1.06000000000000E+00   1.00000000000000E+00   0.00000000000000E+00   1.95718192074578E-06
      1.05000000000000E+00   1.00000000000000E+00   0.00000000000000E+00   1.86903686550654E-06
      1.04000000000000E+00   1.00000000000000E+00   0.00000000000000E+00   1.78255169039864E-06
      1.03000000000000E+00   1.00000000000000E+00   0.00000000000000E+00   1.69777445736573E-06
      1.02000000000000E+00   1.00000000000000E+00   0.00000000000000E+00   1.61475177224490E-06
      1.01000000000000E+00   1.00000000000000E+00   0.00000000000000E+00   1.53352890701988E-06
      1.00000000000000E+00   1.00000000000000E+00   0.00000000000000E+00   1.45415020481779E-06
      9.90000000000000E-01   1.00000000000000E+00   0.00000000000000E+00   1.37665771273223E-06
      9.80000000000000E-01   1.00000000000000E+00   0.00000000000000E+00   1.30109155159133E-06
      9.70000000000000E-01   1.00000000000000E+00   0.00000000000000E+00   1.22749055843953E-06
      9.60000000000000E-01   1.00000000000000E+00   0.00000000000000E+00   1.15589087847463E-06
      9.50000000000000E-01   1.00000000000000E+00   0.00000000000000E+00   1.08632755706881E-06
      9.40000000000000E-01   1.00000000000000E+00   0.00000000000000E+00   1.01883319871164E-06
      9.30000000000000E-01   1.00000000000000E+00   0.00000000000000E+00   9.53438148193410E-07
      9.20000000000000E-01   1.00000000000000E+00   0.00000000000000E+00   8.90170561958218E-07
      9.10000000000000E-01   1.00000000000000E+00   0.00000000000000E+00   8.29056381944934E-07
      9.00000000000000E-01   1.00000000000000E+00   0.00000000000000E+00   7.70119314219284E-07
      8.90000000000000E-01   1.00000000000000E+00   0.00000000000000E+00   7.13380815144990E-07
      8.80000000000000E-01   1.00000000000000E+00   0.00000000000000E+00   6.58860081108531E-07
      8.70000000000000E-01   1.00000000000000E+00   0.00000000000000E+00   6.06574019597161E-07
      8.60000000000000E-01   1.00000000000000E+00   0.00000000000000E+00   5.56537332653410E-07
      8.50000000000000E-01   1.00000000000000E+00   0.00000000000000E+00   5.08762569850024E-07
      8.40000000000000E-01   1.00000000000000E+00   0.00000000000000E+00   4.63259912350953E-07
      8.30000000000000E-01   1.00000000000000E+00   0.00000000000000E+00   4.20037406413289E-07
      8.20000000000000E-01   1.00000000000000E+00   0.00000000000000E+00   3.79100714646452E-07
      8.10000000000000E-01   1.00000000000000E+00   0.00000000000000E+00   3.40453013402220E-07
      8.00000000000000E-01   1.00000000000000E+00   0.00000000000000E+00   3.04094858476106E-07
      7.90000000000000E-01   1.00000000000000E+00   0.00000000000000E+00   2.70023917182186E-07
      7.80000000000000E-01   1.00000000000000E+00   0.00000000000000E+00   2.38234581182010E-07
      7.70000000000000E-01   1.00000000000000E+00   0.00000000000000E+00   2.08717436212925E-07
      7.60000000000000E-01   1.00000000000000E+00   0.00000000000000E+00   1.81458563095755E-07
      7.50000000000000E-01   1.00000000000000E+00   0.00000000000000E+00   1.56438643759211E-07
      7.40000000000000E-01   1.00000000000000E+00   0.00000000000000E+00   1.33631846728130E-07
      7.30000000000000E-01   1.00000000000000E+00   0.00000000000000E+00   1.13004469244877E-07
      7.20000000000000E-01   1.00000000000000E+00   0.00000000000000E+00   9.45133244788469E-08
      7.10000000000000E-01   1.00000000000000E+00   0.00000000000000E+00   7.81038844308254E-08
      6.99999999999999E-01   1.00000000000000E+00   0.00000000000000E+00   6.37082062435693E-08
      6.89999999999999E-01   1.00000000000000E+00   0.00000000000000E+00   5.12427709396918E-08
      6.79999999999999E-01   1.00000000000000E+00   0.00000000000000E+00   4.06064650728693E-08
      6.69999999999999E-01   1.00000000000000E+00   0.00000000000000E+00   3.16790762206746E-08
      6.59999999999999E-01   1.00000000000000E+00   0.00000000000000E+00   2.43208664559372E-08
      6.49999999999999E-01   1.00000000000000E+00   0.00000000000000E+00   1.83739103413561E-08
      6.39999999999999E-01   1.00000000000000E+00   0.00000000000000E+00   1.36658178313521E-08
      6.29999999999999E-01   1.00000000000000E+00   0.00000000000000E+00   1.00160547766364E-08
      6.19999999999999E-01   1.00000000000000E+00   0.00000000000000E+00   7.24430866273926E-09
      6.09999999999999E-01   1.00000000000000E+00   0.00000000000000E+00   5.17949987267071E-09
      5.99999999999999E-01   1.00000000000000E+00   0.00000000000000E+00   3.66760554599143E-09
      5.89999999999999E-01   1.00000000000000E+00   0.00000000000000E+00   2.57679369741787E-09
      5.79999999999999E-01   1.00000000000000E+00   0.00000000000000E+00   1.79929973457871E-09
      5.69999999999999E-01   1.00000000000000E+00   0.00000000000000E+00   1.25046647488246E-09
      5.59999999999999E-01   1.00000000000000E+00   0.00000000000000E+00   8.65938204589657E-10
      5.49999999999999E-01   1.00000000000000E+00   0.00000000000000E+00   5.98054061662568E-10
      5.39999999999999E-01   1.00000000000000E+00   0.00000000000000E+00   4.12222074035998E-10
      5.29999999999999E-01   1.00000000000000E+00   0.00000000000000E+00   2.83714824339289E-10
      5.19999999999999E-01   1.00000000000000E+00   0.00000000000000E+00   1.95054839590317E-10
      5.09999999999999E-01   1.00000000000000E+00   0.00000000000000E+00   1.33990801570855E-10
      5.00000000000000E-01   1.00000000000000E+00   0.00000000000000E+00   9.19864183254574E-11
      4.90000000000000E-01   1.00000000000000E+00   0.00000000000000E+00   6.31198511523253E-11
      4.80000000000000E-01   1.00000000000000E+00   0.00000000000000E+00   4.32959807309622E-11
      4.70000000000000E-01   1.00000000000000E+00   0.00000000000000E+00   2.96894385453940E-11
      4.60000000000000E-01   1.00000000000000E+00   0.00000000000000E+00   2.03541847016841E-11
      4.50000000000000E-01   1.00000000000000E+00   0.00000000000000E+00   1.39515004700794E-11
      4.40000000000000E-01   1.00000000000000E+00   0.00000000000000E+00   9.56130520281560E-12
      4.30000000000000E-01   1.00000000000000E+00   0.00000000000000E+00   6.55168150032967E-12
      4.20000000000000E-01   1.00000000000000E+00   0.00000000000000E+00   4.48885516190803E-12
      4.10000000000000E-01   1.00000000000000E+00   0.00000000000000E+00   3.07518878211323E-12
      4.00000000000000E-01   1.00000000000000E+00   0.00000000000000E+00   2.10652310535953E-12
      3.90000000000000E-01   1.00000000000000E+00   0.00000000000000E+00   1.44285562361342E-12
      3.80000000000000E-01   1.00000000000000E+00   0.00000000000000E+00   9.88200308480027E-13
      3.70000000000000E-01   1.00000000000000E+00   0.00000000000000E+00   6.76760950358035E-13
      3.60000000000000E-01   1.00000000000000E+00   0.00000000000000E+00   4.63442809786862E-13
      3.50000000000000E-01   1.00000000000000E+00   0.00000000000000E+00   3.17343509844219E-13
      3.40000000000000E-01   1.00000000000000E+00   0.00000000000000E+00   2.17288910347077E-13
      3.30000000000000E-01   1.00000000000000E+00   0.00000000000000E+00   1.48772163562603E-13
      3.20000000000000E-01   1.00000000000000E+00   0.00000000000000E+00   1.01855289274043E-13
      3.10000000000000E-01   1.00000000000000E+00   0.00000000000000E+00   6.97308340642840E-14
      3.00000000000000E-01   1.00000000000000E+00   0.00000000000000E+00   4.77361164259024E-14
      2.90000000000000E-01   1.00000000000000E+00   0.00000000000000E+00   3.26777322728029E-14
      2.80000000000000E-01   1.00000000000000E+00   0.00000000000000E+00   2.23687196571883E-14
      2.70000000000000E-01   1.00000000000000E+00   0.00000000000000E+00   1.53114649449647E-14
      2.60000000000000E-01   1.00000000000000E+00   0.00000000000000E+00   1.04804782254800E-14
      2.50000000000000E-01   1.00000000000000E+00   0.00000000000000E+00   7.17359705367159E-15
      2.40000000000000E-01   1.00000000000000E+00   0.00000000000000E+00   4.91007124839173E-15
      2.30000000000001E-01   1.00000000000000E+00   0.00000000000000E+00   3.36076318184692E-15
      2.20000000000001E-01   1.00000000000000E+00   0.00000000000000E+00   2.30034634524025E-15
      2.10000000000001E-01   1.00000000000000E+00   0.00000000000000E+00   1.57457085356440E-15
      2.00000000000001E-01   1.00000000000000E+00   0.00000000000000E+00   1.07784783683299E-15
      1.90000000000001E-01   1.00000000000000E+00   0.00000000000000E+00   7.37900776419438E-16
      1.80000000000001E-01   1.00000000000000E+00   0.00000000000000E+00   5.05256824898007E-16
      1.70000000000001E-01   1.00000000000000E+00   0.00000000000000E+00   3.46052941144010E-16
      1.60000000000001E-01   1.00000000000000E+00   0.00000000000000E+00   2.37111026882044E-16
      1.50000000000001E-01   1.00000000000000E+00   0.00000000000000E+00   1.62565791170438E-16
      1.40000000000001E-01   1.00000000000000E+00   0.00000000000000E+00   1.11557713687324E-16
      1.30000000000001E-01   1.00000000000000E+00   0.00000000000000E+00   7.66392146461022E-17
      1.20000000000001E-01   1.00000000000000E+00   0.00000000000000E+00   5.27775478115417E-17
      1.10000000000001E-01   1.00000000000000E+00   0.00000000000000E+00   3.64361678224212E-17
      1.00000000000001E-01   1.00000000000000E+00   0.00000000000000E+00   2.52598038895689E-17
      9.00000000000010E-02   1.00000000000000E+00   0.00000000000000E+00   1.76260109250425E-17
      8.00000000000010E-02   1.00000000000000E+00   0.00000000000000E+00   1.23917367429486E-17
      7.00000000000012E-02   1.00000000000000E+00   0.00000000000000E+00   8.78038771667952E-18
      6.00000000000012E-02   1.00000000000000E+00   0.00000000000000E+00   6.33084497328273E-18
      5.00000000000012E-02   1.00000000000000E+00   0.00000000000000E+00   4.65205698797510E-18
      4.00000000000011E-02   1.00000000000000E+00   0.00000000000000E+00   3.32962119720912E-18
      3.00000000000011E-02   1.00000000000000E+00   0.00000000000000E+00   2.44311822839053E-18
      2.00000000000014E-02   1.00000000000000E+00   0.00000000000000E+00   1.73460698781745E-18
      1.00000000000013E-02   1.00000000000000E+00   0.00000000000000E+00   1.78101978580929E-18
      0.00000000000000E+00   1.00000000000000E+00   0.00000000000000E+00   1.48218825534434E-18
}
