DF-ISE text

Info {
  version   = 1.0
  type      = xyplot
  datasets  = [
    "vdiff(g,f)" "vdiff(d,f)" "vdiff(s,f)" "i(t1,f)" ]
  functions = [
    Voltage Voltage Voltage Current ]
}

Data {
      1.20000000000000E+00   1.00000000000000E+00   0.00000000000000E+00   3.68082343149332E-06
      1.19000000000000E+00   1.00000000000000E+00   0.00000000000000E+00   3.56873625122364E-06
      1.18000000000000E+00   1.00000000000000E+00   0.00000000000000E+00   3.45757680305880E-06
      1.17000000000000E+00   1.00000000000000E+00   0.00000000000000E+00   3.34740292501860E-06
      1.16000000000000E+00   1.00000000000000E+00   0.00000000000000E+00   3.23827219152822E-06
      1.15000000000000E+00   1.00000000000000E+00   0.00000000000000E+00   3.13024184616366E-06
      1.14000000000000E+00   1.00000000000000E+00   0.00000000000000E+00   3.02336873038593E-06
      1.13000000000000E+00   1.00000000000000E+00   0.00000000000000E+00   2.91770920817955E-06
      1.12000000000000E+00   1.00000000000000E+00   0.00000000000000E+00   2.81331908650313E-06
      1.11000000000000E+00   1.00000000000000E+00   0.00000000000000E+00   2.71025353141358E-06
      1.10000000000000E+00   1.00000000000000E+00   0.00000000000000E+00   2.60856697950662E-06
      1.09000000000000E+00   1.00000000000000E+00   0.00000000000000E+00   2.50831304364744E-06
      1.08000000000000E+00   1.00000000000000E+00   0.00000000000000E+00   2.40954441111235E-06
      1.07000000000000E+00   1.00000000000000E+00   0.00000000000000E+00   2.31231273950651E-06
      1.06000000000000E+00   1.00000000000000E+00   0.00000000000000E+00   2.21666833645256E-06
      1.05000000000000E+00   1.00000000000000E+00   0.00000000000000E+00   2.12266089363817E-06
      1.04000000000000E+00   1.00000000000000E+00   0.00000000000000E+00   2.03033859200752E-06
      1.03000000000000E+00   1.00000000000000E+00   0.00000000000000E+00   1.93974803354785E-06
      1.02000000000000E+00   1.00000000000000E+00   0.00000000000000E+00   1.85093404878528E-06
      1.01000000000000E+00   1.00000000000000E+00   0.00000000000000E+00   1.76393987448802E-06
      1.00000000000000E+00   1.00000000000000E+00   0.00000000000000E+00   1.67880710886705E-06
      9.90000000000000E-01   1.00000000000000E+00   0.00000000000000E+00   1.59557640848301E-06
      9.80000000000000E-01   1.00000000000000E+00   0.00000000000000E+00   1.51428577071517E-06
      9.70000000000000E-01   1.00000000000000E+00   0.00000000000000E+00   1.43497100884036E-06
      9.60000000000000E-01   1.00000000000000E+00   0.00000000000000E+00   1.35766558104183E-06
      9.50000000000000E-01   1.00000000000000E+00   0.00000000000000E+00   1.28240144431114E-06
      9.40000000000000E-01   1.00000000000000E+00   0.00000000000000E+00   1.20920781388683E-06
      9.30000000000000E-01   1.00000000000000E+00   0.00000000000000E+00   1.13811235161055E-06
      9.20000000000000E-01   1.00000000000000E+00   0.00000000000000E+00   1.06914001825646E-06
      9.10000000000000E-01   1.00000000000000E+00   0.00000000000000E+00   1.00231346745645E-06
      9.00000000000000E-01   1.00000000000000E+00   0.00000000000000E+00   9.37653093445081E-07
      8.90000000000000E-01   1.00000000000000E+00   0.00000000000000E+00   8.75177063715589E-07
      8.80000000000000E-01   1.00000000000000E+00   0.00000000000000E+00   8.14901360188860E-07
      8.70000000000000E-01   1.00000000000000E+00   0.00000000000000E+00   7.56839790919439E-07
      8.60000000000000E-01   1.00000000000000E+00   0.00000000000000E+00   7.01004169196578E-07
      8.50000000000000E-01   1.00000000000000E+00   0.00000000000000E+00   6.47404316511393E-07
      8.40000000000000E-01   1.00000000000000E+00   0.00000000000000E+00   5.96048002506026E-07
      8.30000000000000E-01   1.00000000000000E+00   0.00000000000000E+00   5.46941289590944E-07
      8.20000000000000E-01   1.00000000000000E+00   0.00000000000000E+00   5.00088299110887E-07
      8.10000000000000E-01   1.00000000000000E+00   0.00000000000000E+00   4.55491541159389E-07
      8.00000000000000E-01   1.00000000000000E+00   0.00000000000000E+00   4.13151654456407E-07
      7.90000000000000E-01   1.00000000000000E+00   0.00000000000000E+00   3.73067442136739E-07
      7.80000000000000E-01   1.00000000000000E+00   0.00000000000000E+00   3.35235799026791E-07
      7.70000000000000E-01   1.00000000000000E+00   0.00000000000000E+00   2.99651545895415E-07
      7.60000000000000E-01   1.00000000000000E+00   0.00000000000000E+00   2.66307171796625E-07
      7.50000000000000E-01   1.00000000000000E+00   0.00000000000000E+00   2.35192467667061E-07
      7.40000000000000E-01   1.00000000000000E+00   0.00000000000000E+00   2.06294031926548E-07
      7.30000000000000E-01   1.00000000000000E+00   0.00000000000000E+00   1.79594626516778E-07
      7.20000000000000E-01   1.00000000000000E+00   0.00000000000000E+00   1.55072359491645E-07
      7.10000000000000E-01   1.00000000000000E+00   0.00000000000000E+00   1.32699667443187E-07
      6.99999999999999E-01   1.00000000000000E+00   0.00000000000000E+00   1.12442078321027E-07
      6.89999999999999E-01   1.00000000000000E+00   0.00000000000000E+00   9.42567267466982E-08
      6.79999999999999E-01   1.00000000000000E+00   0.00000000000000E+00   7.80906190570088E-08
      6.69999999999999E-01   1.00000000000000E+00   0.00000000000000E+00   6.38786735792513E-08
      6.59999999999999E-01   1.00000000000000E+00   0.00000000000000E+00   5.15416444130517E-08
      6.49999999999999E-01   1.00000000000000E+00   0.00000000000000E+00   4.09841095123001E-08
      6.39999999999999E-01   1.00000000000000E+00   0.00000000000000E+00   3.20928694908473E-08
      6.29999999999999E-01   1.00000000000000E+00   0.00000000000000E+00   2.47362750303867E-08
      6.19999999999999E-01   1.00000000000000E+00   0.00000000000000E+00   1.87651355764646E-08
      6.09999999999999E-01   1.00000000000000E+00   0.00000000000000E+00   1.40158332538688E-08
      5.99999999999999E-01   1.00000000000000E+00   0.00000000000000E+00   1.03159264469670E-08
      5.89999999999999E-01   1.00000000000000E+00   0.00000000000000E+00   7.49184083209066E-09
      5.79999999999999E-01   1.00000000000000E+00   0.00000000000000E+00   5.37742823832973E-09
      5.69999999999999E-01   1.00000000000000E+00   0.00000000000000E+00   3.82168389444470E-09
      5.59999999999999E-01   1.00000000000000E+00   0.00000000000000E+00   2.69411219877786E-09
      5.49999999999999E-01   1.00000000000000E+00   0.00000000000000E+00   1.88704516688305E-09
      5.39999999999999E-01   1.00000000000000E+00   0.00000000000000E+00   1.31516804568712E-09
      5.29999999999999E-01   1.00000000000000E+00   0.00000000000000E+00   9.13119566345324E-10
      5.19999999999999E-01   1.00000000000000E+00   0.00000000000000E+00   6.32162737289339E-10
      5.09999999999999E-01   1.00000000000000E+00   0.00000000000000E+00   4.36714921133591E-10
      5.00000000000000E-01   1.00000000000000E+00   0.00000000000000E+00   3.01210885754462E-10
      4.90000000000000E-01   1.00000000000000E+00   0.00000000000000E+00   2.07501660686401E-10
      4.80000000000000E-01   1.00000000000000E+00   0.00000000000000E+00   1.42816785572872E-10
      4.70000000000000E-01   1.00000000000000E+00   0.00000000000000E+00   9.82285344151428E-11
      4.60000000000000E-01   1.00000000000000E+00   0.00000000000000E+00   6.75251289245366E-11
      4.50000000000000E-01   1.00000000000000E+00   0.00000000000000E+00   4.63994345849055E-11
      4.40000000000000E-01   1.00000000000000E+00   0.00000000000000E+00   3.18725104032412E-11
      4.30000000000000E-01   1.00000000000000E+00   0.00000000000000E+00   2.18878621573441E-11
      4.20000000000000E-01   1.00000000000000E+00   0.00000000000000E+00   1.50277559714360E-11
      4.10000000000000E-01   1.00000000000000E+00   0.00000000000000E+00   1.03158221941332E-11
      4.00000000000000E-01   1.00000000000000E+00   0.00000000000000E+00   7.08017615785082E-12
      3.90000000000000E-01   1.00000000000000E+00   0.00000000000000E+00   4.85874063354432E-12
      3.80000000000000E-01   1.00000000000000E+00   0.00000000000000E+00   3.33387884789354E-12
      3.70000000000000E-01   1.00000000000000E+00   0.00000000000000E+00   2.28732534057786E-12
      3.60000000000000E-01   1.00000000000000E+00   0.00000000000000E+00   1.56914339959722E-12
      3.50000000000000E-01   1.00000000000000E+00   0.00000000000000E+00   1.07636022756582E-12
      3.40000000000000E-01   1.00000000000000E+00   0.00000000000000E+00   7.38271532873570E-13
      3.30000000000000E-01   1.00000000000000E+00   0.00000000000000E+00   5.06338311818833E-13
      3.20000000000000E-01   1.00000000000000E+00   0.00000000000000E+00   3.47243412852525E-13
      3.10000000000000E-01   1.00000000000000E+00   0.00000000000000E+00   2.38121124200981E-13
      3.00000000000000E-01   1.00000000000000E+00   0.00000000000000E+00   1.63280548830253E-13
      2.90000000000000E-01   1.00000000000000E+00   0.00000000000000E+00   1.11955493837052E-13
      2.80000000000000E-01   1.00000000000000E+00   0.00000000000000E+00   7.67595710728742E-14
      2.70000000000000E-01   1.00000000000000E+00   0.00000000000000E+00   5.26256603756084E-14
      2.60000000000000E-01   1.00000000000000E+00   0.00000000000000E+00   3.60779812360648E-14
      2.50000000000000E-01   1.00000000000000E+00   0.00000000000000E+00   2.47325234575082E-14
      2.40000000000000E-01   1.00000000000000E+00   0.00000000000000E+00   1.69542377410601E-14
      2.30000000000001E-01   1.00000000000000E+00   0.00000000000000E+00   1.16218215330394E-14
      2.20000000000001E-01   1.00000000000000E+00   0.00000000000000E+00   7.96634666753005E-15
      2.10000000000001E-01   1.00000000000000E+00   0.00000000000000E+00   5.46055775614576E-15
      2.00000000000001E-01   1.00000000000000E+00   0.00000000000000E+00   3.74293734989581E-15
      1.90000000000001E-01   1.00000000000000E+00   0.00000000000000E+00   2.56562286870789E-15
      1.80000000000001E-01   1.00000000000000E+00   0.00000000000000E+00   1.75868543329140E-15
      1.70000000000001E-01   1.00000000000000E+00   0.00000000000000E+00   1.20563165813108E-15
      1.60000000000001E-01   1.00000000000000E+00   0.00000000000000E+00   8.26603438620801E-16
      1.50000000000001E-01   1.00000000000000E+00   0.00000000000000E+00   5.66858312413289E-16
      1.40000000000001E-01   1.00000000000000E+00   0.00000000000000E+00   3.88871654985426E-16
      1.30000000000001E-01   1.00000000000000E+00   0.00000000000000E+00   2.66920648786517E-16
      1.20000000000001E-01   1.00000000000000E+00   0.00000000000000E+00   1.83373551381685E-16
      1.10000000000001E-01   1.00000000000000E+00   0.00000000000000E+00   1.26131362606239E-16
      1.00000000000001E-01   1.00000000000000E+00   0.00000000000000E+00   8.69270376988883E-17
      9.00000000000010E-02   1.00000000000000E+00   0.00000000000000E+00   6.00668605848786E-17
      8.00000000000010E-02   1.00000000000000E+00   0.00000000000000E+00   4.16694437939767E-17
      7.00000000000012E-02   1.00000000000000E+00   0.00000000000000E+00   2.90775394462679E-17
      6.00000000000012E-02   1.00000000000000E+00   0.00000000000000E+00   2.04242990073906E-17
      5.00000000000012E-02   1.00000000000000E+00   0.00000000000000E+00   1.45255758075323E-17
      4.00000000000011E-02   1.00000000000000E+00   0.00000000000000E+00   9.44924392224129E-18
      3.00000000000011E-02   1.00000000000000E+00   0.00000000000000E+00   7.85183794013074E-18
      2.00000000000014E-02   1.00000000000000E+00   0.00000000000000E+00   5.47413583531087E-18
      1.00000000000013E-02   1.00000000000000E+00   0.00000000000000E+00   4.37253529986162E-18
      0.00000000000000E+00   1.00000000000000E+00   0.00000000000000E+00   3.47803828263829E-18
}
