DF-ISE text

Info {
  version   = 1.0
  type      = xyplot
  datasets  = [
    "vdiff(g,f)" "vdiff(d,f)" "vdiff(s,f)" "i(t1,f)" ]
  functions = [
    Voltage Voltage Voltage Current ]
}

Data {
      1.20000000000000E+00   5.00000000000000E-02   0.00000000000000E+00   6.07753773208847E-07
      1.19000000000000E+00   5.00000000000000E-02   0.00000000000000E+00   5.98477450782404E-07
      1.18000000000000E+00   5.00000000000000E-02   0.00000000000000E+00   5.89027160287843E-07
      1.17000000000000E+00   5.00000000000000E-02   0.00000000000000E+00   5.79401286029190E-07
      1.16000000000000E+00   5.00000000000000E-02   0.00000000000000E+00   5.69598518151842E-07
      1.15000000000000E+00   5.00000000000000E-02   0.00000000000000E+00   5.59617878576663E-07
      1.14000000000000E+00   5.00000000000000E-02   0.00000000000000E+00   5.49458789599133E-07
      1.13000000000000E+00   5.00000000000000E-02   0.00000000000000E+00   5.39121116114909E-07
      1.12000000000000E+00   5.00000000000000E-02   0.00000000000000E+00   5.28605193365342E-07
      1.11000000000000E+00   5.00000000000000E-02   0.00000000000000E+00   5.17911875726576E-07
      1.10000000000000E+00   5.00000000000000E-02   0.00000000000000E+00   5.07042609237490E-07
      1.09000000000000E+00   5.00000000000000E-02   0.00000000000000E+00   4.95999509429274E-07
      1.08000000000000E+00   5.00000000000000E-02   0.00000000000000E+00   4.84785374004911E-07
      1.07000000000000E+00   5.00000000000000E-02   0.00000000000000E+00   4.73403740100055E-07
      1.06000000000000E+00   5.00000000000000E-02   0.00000000000000E+00   4.61858942193871E-07
      1.05000000000000E+00   5.00000000000000E-02   0.00000000000000E+00   4.50156130384604E-07
      1.04000000000000E+00   5.00000000000000E-02   0.00000000000000E+00   4.38301388818942E-07
      1.03000000000000E+00   5.00000000000000E-02   0.00000000000000E+00   4.26301711534216E-07
      1.02000000000000E+00   5.00000000000000E-02   0.00000000000000E+00   4.14165053306224E-07
      1.01000000000000E+00   5.00000000000000E-02   0.00000000000000E+00   4.01900308815662E-07
      1.00000000000000E+00   5.00000000000000E-02   0.00000000000000E+00   3.89517329106811E-07
      9.90000000000000E-01   5.00000000000000E-02   0.00000000000000E+00   3.77026906202179E-07
      9.80000000000000E-01   5.00000000000000E-02   0.00000000000000E+00   3.64440741871246E-07
      9.70000000000000E-01   5.00000000000000E-02   0.00000000000000E+00   3.51771400836522E-07
      9.60000000000000E-01   5.00000000000000E-02   0.00000000000000E+00   3.39032249202144E-07
      9.50000000000000E-01   5.00000000000000E-02   0.00000000000000E+00   3.26237379493843E-07
      9.40000000000000E-01   5.00000000000000E-02   0.00000000000000E+00   3.13401524137945E-07
      9.30000000000000E-01   5.00000000000000E-02   0.00000000000000E+00   3.00539959509790E-07
      9.20000000000000E-01   5.00000000000000E-02   0.00000000000000E+00   2.87668403046749E-07
      9.10000000000000E-01   5.00000000000000E-02   0.00000000000000E+00   2.74802906681865E-07
      9.00000000000000E-01   5.00000000000000E-02   0.00000000000000E+00   2.61959751371412E-07
      8.90000000000000E-01   5.00000000000000E-02   0.00000000000000E+00   2.49155349970150E-07
      8.80000000000000E-01   5.00000000000000E-02   0.00000000000000E+00   2.36406169019375E-07
      8.70000000000000E-01   5.00000000000000E-02   0.00000000000000E+00   2.23728683581358E-07
      8.60000000000000E-01   5.00000000000000E-02   0.00000000000000E+00   2.11139382134864E-07
      8.50000000000000E-01   5.00000000000000E-02   0.00000000000000E+00   1.98654839682188E-07
      8.40000000000000E-01   5.00000000000000E-02   0.00000000000000E+00   1.86291875810542E-07
      8.30000000000000E-01   5.00000000000000E-02   0.00000000000000E+00   1.74067810296523E-07
      8.20000000000000E-01   5.00000000000000E-02   0.00000000000000E+00   1.62000822464117E-07
      8.10000000000000E-01   5.00000000000000E-02   0.00000000000000E+00   1.50110412991291E-07
      8.00000000000000E-01   5.00000000000000E-02   0.00000000000000E+00   1.38417959439674E-07
      7.90000000000000E-01   5.00000000000000E-02   0.00000000000000E+00   1.26947350281770E-07
      7.80000000000000E-01   5.00000000000000E-02   0.00000000000000E+00   1.15725675260166E-07
      7.70000000000000E-01   5.00000000000000E-02   0.00000000000000E+00   1.04783950575876E-07
      7.60000000000000E-01   5.00000000000000E-02   0.00000000000000E+00   9.41578323098177E-08
      7.50000000000000E-01   5.00000000000000E-02   0.00000000000000E+00   8.38882639945825E-08
      7.40000000000000E-01   5.00000000000000E-02   0.00000000000000E+00   7.40219634263543E-08
      7.30000000000000E-01   5.00000000000000E-02   0.00000000000000E+00   6.46115854655096E-08
      7.20000000000000E-01   5.00000000000000E-02   0.00000000000000E+00   5.57153139584764E-08
      7.10000000000000E-01   5.00000000000000E-02   0.00000000000000E+00   4.73955166081891E-08
      6.99999999999999E-01   5.00000000000000E-02   0.00000000000000E+00   3.97160286629430E-08
      6.89999999999999E-01   5.00000000000000E-02   0.00000000000000E+00   3.27376880821243E-08
      6.79999999999999E-01   5.00000000000000E-02   0.00000000000000E+00   2.65120656909374E-08
      6.69999999999999E-01   5.00000000000000E-02   0.00000000000000E+00   2.10739864708259E-08
      6.59999999999999E-01   5.00000000000000E-02   0.00000000000000E+00   1.64342804167886E-08
      6.49999999999999E-01   5.00000000000000E-02   0.00000000000000E+00   1.25748077102402E-08
      6.39999999999999E-01   5.00000000000000E-02   0.00000000000000E+00   9.44765460123329E-09
      6.29999999999999E-01   5.00000000000000E-02   0.00000000000000E+00   6.97930488966567E-09
      6.19999999999999E-01   5.00000000000000E-02   0.00000000000000E+00   5.07895816270419E-09
      6.09999999999999E-01   5.00000000000000E-02   0.00000000000000E+00   3.64880492256574E-09
      5.99999999999999E-01   5.00000000000000E-02   0.00000000000000E+00   2.59366367366316E-09
      5.89999999999999E-01   5.00000000000000E-02   0.00000000000000E+00   1.82804395059786E-09
      5.79999999999999E-01   5.00000000000000E-02   0.00000000000000E+00   1.27992442641504E-09
      5.69999999999999E-01   5.00000000000000E-02   0.00000000000000E+00   8.91633379202502E-10
      5.59999999999999E-01   5.00000000000000E-02   0.00000000000000E+00   6.18778195188666E-10
      5.49999999999999E-01   5.00000000000000E-02   0.00000000000000E+00   4.28202448685687E-10
      5.39999999999999E-01   5.00000000000000E-02   0.00000000000000E+00   2.95695252255482E-10
      5.29999999999999E-01   5.00000000000000E-02   0.00000000000000E+00   2.03870544453838E-10
      5.19999999999999E-01   5.00000000000000E-02   0.00000000000000E+00   1.40394774084444E-10
      5.09999999999999E-01   5.00000000000000E-02   0.00000000000000E+00   9.65958694854605E-11
      5.00000000000000E-01   5.00000000000000E-02   0.00000000000000E+00   6.64152783524929E-11
      4.90000000000000E-01   5.00000000000000E-02   0.00000000000000E+00   4.56399509738247E-11
      4.80000000000000E-01   5.00000000000000E-02   0.00000000000000E+00   3.13500424061005E-11
      4.70000000000000E-01   5.00000000000000E-02   0.00000000000000E+00   2.15269320676852E-11
      4.60000000000000E-01   5.00000000000000E-02   0.00000000000000E+00   1.47775780947725E-11
      4.50000000000000E-01   5.00000000000000E-02   0.00000000000000E+00   1.01419387512443E-11
      4.40000000000000E-01   5.00000000000000E-02   0.00000000000000E+00   6.95905140752163E-12
      4.30000000000000E-01   5.00000000000000E-02   0.00000000000000E+00   4.77421275186557E-12
      4.20000000000000E-01   5.00000000000000E-02   0.00000000000000E+00   3.27480158905081E-12
      4.10000000000000E-01   5.00000000000000E-02   0.00000000000000E+00   2.24598442420003E-12
      4.00000000000000E-01   5.00000000000000E-02   0.00000000000000E+00   1.54018432569772E-12
      3.90000000000000E-01   5.00000000000000E-02   0.00000000000000E+00   1.05605750235383E-12
      3.80000000000000E-01   5.00000000000000E-02   0.00000000000000E+00   7.24027885907666E-13
      3.70000000000000E-01   5.00000000000000E-02   0.00000000000000E+00   4.96339992633486E-13
      3.60000000000000E-01   5.00000000000000E-02   0.00000000000000E+00   3.40222046967481E-13
      3.50000000000000E-01   5.00000000000000E-02   0.00000000000000E+00   2.33188681238523E-13
      3.40000000000000E-01   5.00000000000000E-02   0.00000000000000E+00   1.59814680899309E-13
      3.30000000000000E-01   5.00000000000000E-02   0.00000000000000E+00   1.09519696111375E-13
      3.20000000000000E-01   5.00000000000000E-02   0.00000000000000E+00   7.50474855524093E-14
      3.10000000000000E-01   5.00000000000000E-02   0.00000000000000E+00   5.14221596205449E-14
      3.00000000000000E-01   5.00000000000000E-02   0.00000000000000E+00   3.52319391660562E-14
      2.90000000000000E-01   5.00000000000000E-02   0.00000000000000E+00   2.41377415164766E-14
      2.80000000000000E-01   5.00000000000000E-02   0.00000000000000E+00   1.65360715558721E-14
      2.70000000000000E-01   5.00000000000000E-02   0.00000000000000E+00   1.13277976203738E-14
      2.60000000000000E-01   5.00000000000000E-02   0.00000000000000E+00   7.75957430174506E-15
      2.50000000000000E-01   5.00000000000000E-02   0.00000000000000E+00   5.31510057901737E-15
      2.40000000000000E-01   5.00000000000000E-02   0.00000000000000E+00   3.64056007917414E-15
      2.30000000000001E-01   5.00000000000000E-02   0.00000000000000E+00   2.49350387021981E-15
      2.20000000000001E-01   5.00000000000000E-02   0.00000000000000E+00   1.70780840236797E-15
      2.10000000000001E-01   5.00000000000000E-02   0.00000000000000E+00   1.16965533185257E-15
      2.00000000000001E-01   5.00000000000000E-02   0.00000000000000E+00   8.01067784550509E-16
      1.90000000000001E-01   5.00000000000000E-02   0.00000000000000E+00   5.48626857080478E-16
      1.80000000000001E-01   5.00000000000000E-02   0.00000000000000E+00   3.75739150173452E-16
      1.70000000000001E-01   5.00000000000000E-02   0.00000000000000E+00   2.57338304187232E-16
      1.60000000000001E-01   5.00000000000000E-02   0.00000000000000E+00   1.76254680013556E-16
      1.50000000000001E-01   5.00000000000000E-02   0.00000000000000E+00   1.20728146837248E-16
      1.40000000000001E-01   5.00000000000000E-02   0.00000000000000E+00   8.27040954434106E-17
      1.30000000000001E-01   5.00000000000000E-02   0.00000000000000E+00   5.66755125369063E-17
      1.20000000000001E-01   5.00000000000000E-02   0.00000000000000E+00   3.88360374479727E-17
      1.10000000000001E-01   5.00000000000000E-02   0.00000000000000E+00   2.66291604334504E-17
      1.00000000000001E-01   5.00000000000000E-02   0.00000000000000E+00   1.82657541827757E-17
      9.00000000000010E-02   5.00000000000000E-02   0.00000000000000E+00   1.24879030433445E-17
      8.00000000000010E-02   5.00000000000000E-02   0.00000000000000E+00   8.58127173643497E-18
      7.00000000000012E-02   5.00000000000000E-02   0.00000000000000E+00   5.95622477696538E-18
      6.00000000000012E-02   5.00000000000000E-02   0.00000000000000E+00   4.09399265901938E-18
      5.00000000000012E-02   5.00000000000000E-02   0.00000000000000E+00   2.83410843742949E-18
      4.00000000000011E-02   5.00000000000000E-02   0.00000000000000E+00   1.96974166512681E-18
      3.00000000000011E-02   5.00000000000000E-02   0.00000000000000E+00   1.37953410567252E-18
      2.00000000000014E-02   5.00000000000000E-02   0.00000000000000E+00   9.74422454574758E-19
      1.00000000000013E-02   5.00000000000000E-02   0.00000000000000E+00   6.80230886502431E-19
      0.00000000000000E+00   5.00000000000000E-02   0.00000000000000E+00   5.06464068111531E-19
}
