DF-ISE text

Info {
  version   = 1.0
  type      = xyplot
  datasets  = [
    "vdiff(g,f)" "vdiff(d,f)" "vdiff(s,f)" "i(t1,f)" ]
  functions = [
    Voltage Voltage Voltage Current ]
}

Data {
      1.20000000000000E+00   1.00000000000000E+00   0.00000000000000E+00   2.93590596109643E-06
      1.19000000000000E+00   1.00000000000000E+00   0.00000000000000E+00   2.83743465691849E-06
      1.18000000000000E+00   1.00000000000000E+00   0.00000000000000E+00   2.73983946312762E-06
      1.17000000000000E+00   1.00000000000000E+00   0.00000000000000E+00   2.64317832513211E-06
      1.16000000000000E+00   1.00000000000000E+00   0.00000000000000E+00   2.54750917405869E-06
      1.15000000000000E+00   1.00000000000000E+00   0.00000000000000E+00   2.45288987823821E-06
      1.14000000000000E+00   1.00000000000000E+00   0.00000000000000E+00   2.35937818313466E-06
      1.13000000000000E+00   1.00000000000000E+00   0.00000000000000E+00   2.26703162294637E-06
      1.12000000000000E+00   1.00000000000000E+00   0.00000000000000E+00   2.17590742953408E-06
      1.11000000000000E+00   1.00000000000000E+00   0.00000000000000E+00   2.08606245210231E-06
      1.10000000000000E+00   1.00000000000000E+00   0.00000000000000E+00   1.99755307845814E-06
      1.09000000000000E+00   1.00000000000000E+00   0.00000000000000E+00   1.91043506967967E-06
      1.08000000000000E+00   1.00000000000000E+00   0.00000000000000E+00   1.82476358866933E-06
      1.07000000000000E+00   1.00000000000000E+00   0.00000000000000E+00   1.74059340982618E-06
      1.06000000000000E+00   1.00000000000000E+00   0.00000000000000E+00   1.65797809928597E-06
      1.05000000000000E+00   1.00000000000000E+00   0.00000000000000E+00   1.57697026701072E-06
      1.04000000000000E+00   1.00000000000000E+00   0.00000000000000E+00   1.49762182948498E-06
      1.03000000000000E+00   1.00000000000000E+00   0.00000000000000E+00   1.41998296642567E-06
      1.02000000000000E+00   1.00000000000000E+00   0.00000000000000E+00   1.34410370074525E-06
      1.01000000000000E+00   1.00000000000000E+00   0.00000000000000E+00   1.27003194622481E-06
      1.00000000000000E+00   1.00000000000000E+00   0.00000000000000E+00   1.19781395916548E-06
      9.90000000000000E-01   1.00000000000000E+00   0.00000000000000E+00   1.12749485900508E-06
      9.80000000000000E-01   1.00000000000000E+00   0.00000000000000E+00   1.05911720296677E-06
      9.70000000000000E-01   1.00000000000000E+00   0.00000000000000E+00   9.92722583710022E-07
      9.60000000000000E-01   1.00000000000000E+00   0.00000000000000E+00   9.28350291603362E-07
      9.50000000000000E-01   1.00000000000000E+00   0.00000000000000E+00   8.66037338979335E-07
      9.40000000000000E-01   1.00000000000000E+00   0.00000000000000E+00   8.05818516659188E-07
      9.30000000000000E-01   1.00000000000000E+00   0.00000000000000E+00   7.47726305872915E-07
      9.20000000000000E-01   1.00000000000000E+00   0.00000000000000E+00   6.91790788861113E-07
      9.10000000000000E-01   1.00000000000000E+00   0.00000000000000E+00   6.38039561583450E-07
      9.00000000000000E-01   1.00000000000000E+00   0.00000000000000E+00   5.86497639788189E-07
      8.90000000000000E-01   1.00000000000000E+00   0.00000000000000E+00   5.37187359796950E-07
      8.80000000000000E-01   1.00000000000000E+00   0.00000000000000E+00   4.90128386755764E-07
      8.70000000000000E-01   1.00000000000000E+00   0.00000000000000E+00   4.45337644623276E-07
      8.60000000000000E-01   1.00000000000000E+00   0.00000000000000E+00   4.02829065610057E-07
      8.50000000000000E-01   1.00000000000000E+00   0.00000000000000E+00   3.62613669389223E-07
      8.40000000000000E-01   1.00000000000000E+00   0.00000000000000E+00   3.24699169096463E-07
      8.30000000000000E-01   1.00000000000000E+00   0.00000000000000E+00   2.89089839101161E-07
      8.20000000000000E-01   1.00000000000000E+00   0.00000000000000E+00   2.55786209518009E-07
      8.10000000000000E-01   1.00000000000000E+00   0.00000000000000E+00   2.24784631650640E-07
      8.00000000000000E-01   1.00000000000000E+00   0.00000000000000E+00   1.96076689755039E-07
      7.90000000000000E-01   1.00000000000000E+00   0.00000000000000E+00   1.69648426046224E-07
      7.80000000000000E-01   1.00000000000000E+00   0.00000000000000E+00   1.45479345778755E-07
      7.70000000000000E-01   1.00000000000000E+00   0.00000000000000E+00   1.23541172551202E-07
      7.60000000000000E-01   1.00000000000000E+00   0.00000000000000E+00   1.03796332214665E-07
      7.50000000000000E-01   1.00000000000000E+00   0.00000000000000E+00   8.61961612497190E-08
      7.40000000000000E-01   1.00000000000000E+00   0.00000000000000E+00   7.06788796920405E-08
      7.30000000000000E-01   1.00000000000000E+00   0.00000000000000E+00   5.71673905517169E-08
      7.20000000000000E-01   1.00000000000000E+00   0.00000000000000E+00   4.55671110686966E-08
      7.10000000000000E-01   1.00000000000000E+00   0.00000000000000E+00   3.57641651700507E-08
      6.99999999999999E-01   1.00000000000000E+00   0.00000000000000E+00   2.76244281353237E-08
      6.89999999999999E-01   1.00000000000000E+00   0.00000000000000E+00   2.09940934999130E-08
      6.79999999999999E-01   1.00000000000000E+00   0.00000000000000E+00   1.57024608242227E-08
      6.69999999999999E-01   1.00000000000000E+00   0.00000000000000E+00   1.15673831812345E-08
      6.59999999999999E-01   1.00000000000000E+00   0.00000000000000E+00   8.40316328515317E-09
      6.49999999999999E-01   1.00000000000000E+00   0.00000000000000E+00   6.02979361506869E-09
      6.39999999999999E-01   1.00000000000000E+00   0.00000000000000E+00   4.28174793988433E-09
      6.29999999999999E-01   1.00000000000000E+00   0.00000000000000E+00   3.01453334363366E-09
      6.19999999999999E-01   1.00000000000000E+00   0.00000000000000E+00   2.10797912419007E-09
      6.09999999999999E-01   1.00000000000000E+00   0.00000000000000E+00   1.46631728161873E-09
      5.99999999999999E-01   1.00000000000000E+00   0.00000000000000E+00   1.01591267109825E-09
      5.89999999999999E-01   1.00000000000000E+00   0.00000000000000E+00   7.01758660378133E-10
      5.79999999999999E-01   1.00000000000000E+00   0.00000000000000E+00   4.83678288997478E-10
      5.69999999999999E-01   1.00000000000000E+00   0.00000000000000E+00   3.32823083020559E-10
      5.59999999999999E-01   1.00000000000000E+00   0.00000000000000E+00   2.28740561311549E-10
      5.49999999999999E-01   1.00000000000000E+00   0.00000000000000E+00   1.57065489837371E-10
      5.39999999999999E-01   1.00000000000000E+00   0.00000000000000E+00   1.07776513334194E-10
      5.29999999999999E-01   1.00000000000000E+00   0.00000000000000E+00   7.39169639084932E-11
      5.19999999999999E-01   1.00000000000000E+00   0.00000000000000E+00   5.06748011558953E-11
      5.09999999999999E-01   1.00000000000000E+00   0.00000000000000E+00   3.47300319431749E-11
      5.00000000000000E-01   1.00000000000000E+00   0.00000000000000E+00   2.37963691752100E-11
      4.90000000000000E-01   1.00000000000000E+00   0.00000000000000E+00   1.63015382648127E-11
      4.80000000000000E-01   1.00000000000000E+00   0.00000000000000E+00   1.11653845844643E-11
      4.70000000000000E-01   1.00000000000000E+00   0.00000000000000E+00   7.64640206626844E-12
      4.60000000000000E-01   1.00000000000000E+00   0.00000000000000E+00   5.23585236101226E-12
      4.50000000000000E-01   1.00000000000000E+00   0.00000000000000E+00   3.58485023373340E-12
      4.40000000000000E-01   1.00000000000000E+00   0.00000000000000E+00   2.45421806447659E-12
      4.30000000000000E-01   1.00000000000000E+00   0.00000000000000E+00   1.68003335805041E-12
      4.20000000000000E-01   1.00000000000000E+00   0.00000000000000E+00   1.14997565802556E-12
      4.10000000000000E-01   1.00000000000000E+00   0.00000000000000E+00   7.87096854906052E-13
      4.00000000000000E-01   1.00000000000000E+00   0.00000000000000E+00   5.38689954757253E-13
      3.90000000000000E-01   1.00000000000000E+00   0.00000000000000E+00   3.68657285584802E-13
      3.80000000000000E-01   1.00000000000000E+00   0.00000000000000E+00   2.52279436975585E-13
      3.70000000000000E-01   1.00000000000000E+00   0.00000000000000E+00   1.72630549341322E-13
      3.60000000000000E-01   1.00000000000000E+00   0.00000000000000E+00   1.18122271153851E-13
      3.50000000000000E-01   1.00000000000000E+00   0.00000000000000E+00   8.08212885941197E-14
      3.40000000000000E-01   1.00000000000000E+00   0.00000000000000E+00   5.52969395600534E-14
      3.30000000000000E-01   1.00000000000000E+00   0.00000000000000E+00   3.78319999267227E-14
      3.20000000000000E-01   1.00000000000000E+00   0.00000000000000E+00   2.58822491438938E-14
      3.10000000000000E-01   1.00000000000000E+00   0.00000000000000E+00   1.77064307908490E-14
      3.00000000000000E-01   1.00000000000000E+00   0.00000000000000E+00   1.21129066490565E-14
      2.90000000000000E-01   1.00000000000000E+00   0.00000000000000E+00   8.28621904525186E-15
      2.80000000000000E-01   1.00000000000000E+00   0.00000000000000E+00   5.66836694205425E-15
      2.70000000000000E-01   1.00000000000000E+00   0.00000000000000E+00   3.87754152202778E-15
      2.60000000000000E-01   1.00000000000000E+00   0.00000000000000E+00   2.65250577448306E-15
      2.50000000000000E-01   1.00000000000000E+00   0.00000000000000E+00   1.81452788496455E-15
      2.40000000000000E-01   1.00000000000000E+00   0.00000000000000E+00   1.24132958922471E-15
      2.30000000000001E-01   1.00000000000000E+00   0.00000000000000E+00   8.49258041040522E-16
      2.20000000000001E-01   1.00000000000000E+00   0.00000000000000E+00   5.81086134347570E-16
      2.10000000000001E-01   1.00000000000000E+00   0.00000000000000E+00   3.97665552035986E-16
      2.00000000000001E-01   1.00000000000000E+00   0.00000000000000E+00   2.72216262630397E-16
      1.90000000000001E-01   1.00000000000000E+00   0.00000000000000E+00   1.86418862863290E-16
      1.80000000000001E-01   1.00000000000000E+00   0.00000000000000E+00   1.27741152520835E-16
      1.70000000000001E-01   1.00000000000000E+00   0.00000000000000E+00   8.76108155666325E-17
      1.60000000000001E-01   1.00000000000000E+00   0.00000000000000E+00   6.01652735481710E-17
      1.50000000000001E-01   1.00000000000000E+00   0.00000000000000E+00   4.13840022984593E-17
      1.40000000000001E-01   1.00000000000000E+00   0.00000000000000E+00   2.85598130390966E-17
      1.30000000000001E-01   1.00000000000000E+00   0.00000000000000E+00   1.97811666840422E-17
      1.20000000000001E-01   1.00000000000000E+00   0.00000000000000E+00   1.37766553819721E-17
      1.10000000000001E-01   1.00000000000000E+00   0.00000000000000E+00   9.66682034586946E-18
      1.00000000000001E-01   1.00000000000000E+00   0.00000000000000E+00   6.84495119807678E-18
      9.00000000000010E-02   1.00000000000000E+00   0.00000000000000E+00   4.92982788561372E-18
      8.00000000000010E-02   1.00000000000000E+00   0.00000000000000E+00   3.60273675632213E-18
      7.00000000000012E-02   1.00000000000000E+00   0.00000000000000E+00   2.72125980414241E-18
      6.00000000000012E-02   1.00000000000000E+00   0.00000000000000E+00   2.03273333259412E-18
      5.00000000000012E-02   1.00000000000000E+00   0.00000000000000E+00   1.02599419301253E-18
      4.00000000000011E-02   1.00000000000000E+00   0.00000000000000E+00   1.38058645217296E-18
      3.00000000000011E-02   1.00000000000000E+00   0.00000000000000E+00   1.13301970419778E-18
      2.00000000000014E-02   1.00000000000000E+00   0.00000000000000E+00   1.02399243533333E-18
      1.00000000000013E-02   1.00000000000000E+00   0.00000000000000E+00   9.23135952355229E-19
      0.00000000000000E+00   1.00000000000000E+00   0.00000000000000E+00   8.55144799907046E-19
}
