DF-ISE text

Info {
  version   = 1.0
  type      = xyplot
  datasets  = [
    "vdiff(g,f)" "vdiff(d,f)" "vdiff(s,f)" "i(t1,f)" ]
  functions = [
    Voltage Voltage Voltage Current ]
}

Data {
      1.20000000000000E+00   1.00000000000000E+00   0.00000000000000E+00   3.76127963480010E-06
      1.19000000000000E+00   1.00000000000000E+00   0.00000000000000E+00   3.64903722088990E-06
      1.18000000000000E+00   1.00000000000000E+00   0.00000000000000E+00   3.53770311234593E-06
      1.17000000000000E+00   1.00000000000000E+00   0.00000000000000E+00   3.42733260439225E-06
      1.16000000000000E+00   1.00000000000000E+00   0.00000000000000E+00   3.31798071646967E-06
      1.15000000000000E+00   1.00000000000000E+00   0.00000000000000E+00   3.20970213370352E-06
      1.14000000000000E+00   1.00000000000000E+00   0.00000000000000E+00   3.10255114481742E-06
      1.13000000000000E+00   1.00000000000000E+00   0.00000000000000E+00   2.99658157643332E-06
      1.12000000000000E+00   1.00000000000000E+00   0.00000000000000E+00   2.89184672369729E-06
      1.11000000000000E+00   1.00000000000000E+00   0.00000000000000E+00   2.78839927712546E-06
      1.10000000000000E+00   1.00000000000000E+00   0.00000000000000E+00   2.68629124538131E-06
      1.09000000000000E+00   1.00000000000000E+00   0.00000000000000E+00   2.58557387318229E-06
      1.08000000000000E+00   1.00000000000000E+00   0.00000000000000E+00   2.48629755343973E-06
      1.07000000000000E+00   1.00000000000000E+00   0.00000000000000E+00   2.38851174051017E-06
      1.06000000000000E+00   1.00000000000000E+00   0.00000000000000E+00   2.29226467956114E-06
      1.05000000000000E+00   1.00000000000000E+00   0.00000000000000E+00   2.19760394643186E-06
      1.04000000000000E+00   1.00000000000000E+00   0.00000000000000E+00   2.10457588981233E-06
      1.03000000000000E+00   1.00000000000000E+00   0.00000000000000E+00   2.01322538851871E-06
      1.02000000000000E+00   1.00000000000000E+00   0.00000000000000E+00   1.92359579747350E-06
      1.01000000000000E+00   1.00000000000000E+00   0.00000000000000E+00   1.83572895483105E-06
      1.00000000000000E+00   1.00000000000000E+00   0.00000000000000E+00   1.74966514127486E-06
      9.90000000000000E-01   1.00000000000000E+00   0.00000000000000E+00   1.66544367693817E-06
      9.80000000000000E-01   1.00000000000000E+00   0.00000000000000E+00   1.58310205386890E-06
      9.70000000000000E-01   1.00000000000000E+00   0.00000000000000E+00   1.50267559123885E-06
      9.60000000000000E-01   1.00000000000000E+00   0.00000000000000E+00   1.42419746996227E-06
      9.50000000000000E-01   1.00000000000000E+00   0.00000000000000E+00   1.34769941546898E-06
      9.40000000000000E-01   1.00000000000000E+00   0.00000000000000E+00   1.27321098903443E-06
      9.30000000000000E-01   1.00000000000000E+00   0.00000000000000E+00   1.20075983626372E-06
      9.20000000000000E-01   1.00000000000000E+00   0.00000000000000E+00   1.13037193785927E-06
      9.10000000000000E-01   1.00000000000000E+00   0.00000000000000E+00   1.06207092502104E-06
      9.00000000000000E-01   1.00000000000000E+00   0.00000000000000E+00   9.95878415724278E-07
      8.90000000000000E-01   1.00000000000000E+00   0.00000000000000E+00   9.31814049632300E-07
      8.80000000000000E-01   1.00000000000000E+00   0.00000000000000E+00   8.69895526893573E-07
      8.70000000000000E-01   1.00000000000000E+00   0.00000000000000E+00   8.10138655001586E-07
      8.60000000000000E-01   1.00000000000000E+00   0.00000000000000E+00   7.52557394753632E-07
      8.50000000000000E-01   1.00000000000000E+00   0.00000000000000E+00   6.97163912454249E-07
      8.40000000000000E-01   1.00000000000000E+00   0.00000000000000E+00   6.43968770132899E-07
      8.30000000000000E-01   1.00000000000000E+00   0.00000000000000E+00   5.92980766660264E-07
      8.20000000000000E-01   1.00000000000000E+00   0.00000000000000E+00   5.44207234901711E-07
      8.10000000000000E-01   1.00000000000000E+00   0.00000000000000E+00   4.97653892913670E-07
      8.00000000000000E-01   1.00000000000000E+00   0.00000000000000E+00   4.53325015854028E-07
      7.90000000000000E-01   1.00000000000000E+00   0.00000000000000E+00   4.11223327697451E-07
      7.80000000000000E-01   1.00000000000000E+00   0.00000000000000E+00   3.71349881290021E-07
      7.70000000000000E-01   1.00000000000000E+00   0.00000000000000E+00   3.33703973006468E-07
      7.60000000000000E-01   1.00000000000000E+00   0.00000000000000E+00   2.98282929621049E-07
      7.50000000000000E-01   1.00000000000000E+00   0.00000000000000E+00   2.65081797480220E-07
      7.40000000000000E-01   1.00000000000000E+00   0.00000000000000E+00   2.34092918961447E-07
      7.30000000000000E-01   1.00000000000000E+00   0.00000000000000E+00   2.05305379176251E-07
      7.20000000000000E-01   1.00000000000000E+00   0.00000000000000E+00   1.78704303829610E-07
      7.10000000000000E-01   1.00000000000000E+00   0.00000000000000E+00   1.54269986962583E-07
      6.99999999999999E-01   1.00000000000000E+00   0.00000000000000E+00   1.31976825206339E-07
      6.89999999999999E-01   1.00000000000000E+00   0.00000000000000E+00   1.11792035836310E-07
      6.79999999999999E-01   1.00000000000000E+00   0.00000000000000E+00   9.36741445787002E-08
      6.69999999999999E-01   1.00000000000000E+00   0.00000000000000E+00   7.75712304883662E-08
      6.59999999999999E-01   1.00000000000000E+00   0.00000000000000E+00   6.34189632604758E-08
      6.49999999999999E-01   1.00000000000000E+00   0.00000000000000E+00   5.11385280733688E-08
      6.39999999999999E-01   1.00000000000000E+00   0.00000000000000E+00   4.06346368776871E-08
      6.29999999999999E-01   1.00000000000000E+00   0.00000000000000E+00   3.17939653605786E-08
      6.19999999999999E-01   1.00000000000000E+00   0.00000000000000E+00   2.44845378375103E-08
      6.09999999999999E-01   1.00000000000000E+00   0.00000000000000E+00   1.85567145766310E-08
      5.99999999999999E-01   1.00000000000000E+00   0.00000000000000E+00   1.38464035599039E-08
      5.89999999999999E-01   1.00000000000000E+00   0.00000000000000E+00   1.01807714186399E-08
      5.79999999999999E-01   1.00000000000000E+00   0.00000000000000E+00   7.38603075503448E-09
      5.69999999999999E-01   1.00000000000000E+00   0.00000000000000E+00   5.29605994751456E-09
      5.59999999999999E-01   1.00000000000000E+00   0.00000000000000E+00   3.76012736787896E-09
      5.49999999999999E-01   1.00000000000000E+00   0.00000000000000E+00   2.64821074185730E-09
      5.39999999999999E-01   1.00000000000000E+00   0.00000000000000E+00   1.85323609908237E-09
      5.29999999999999E-01   1.00000000000000E+00   0.00000000000000E+00   1.29051908523957E-09
      5.19999999999999E-01   1.00000000000000E+00   0.00000000000000E+00   8.95298040686845E-10
      5.09999999999999E-01   1.00000000000000E+00   0.00000000000000E+00   6.19363664796452E-10
      5.00000000000000E-01   1.00000000000000E+00   0.00000000000000E+00   4.27572058200133E-10
      4.90000000000000E-01   1.00000000000000E+00   0.00000000000000E+00   2.94707747263173E-10
      4.80000000000000E-01   1.00000000000000E+00   0.00000000000000E+00   2.02892011298955E-10
      4.70000000000000E-01   1.00000000000000E+00   0.00000000000000E+00   1.39558404574378E-10
      4.60000000000000E-01   1.00000000000000E+00   0.00000000000000E+00   9.59305618279689E-11
      4.50000000000000E-01   1.00000000000000E+00   0.00000000000000E+00   6.59075468354652E-11
      4.40000000000000E-01   1.00000000000000E+00   0.00000000000000E+00   4.52625999572575E-11
      4.30000000000000E-01   1.00000000000000E+00   0.00000000000000E+00   3.10746267989417E-11
      4.20000000000000E-01   1.00000000000000E+00   0.00000000000000E+00   2.13285259954521E-11
      4.10000000000000E-01   1.00000000000000E+00   0.00000000000000E+00   1.46360495836513E-11
      4.00000000000000E-01   1.00000000000000E+00   0.00000000000000E+00   1.00417571580678E-11
      3.90000000000000E-01   1.00000000000000E+00   0.00000000000000E+00   6.88857716015821E-12
      3.80000000000000E-01   1.00000000000000E+00   0.00000000000000E+00   4.72489208521764E-12
      3.70000000000000E-01   1.00000000000000E+00   0.00000000000000E+00   3.24043652444902E-12
      3.60000000000000E-01   1.00000000000000E+00   0.00000000000000E+00   2.22213135510713E-12
      3.50000000000000E-01   1.00000000000000E+00   0.00000000000000E+00   1.52368371696772E-12
      3.40000000000000E-01   1.00000000000000E+00   0.00000000000000E+00   1.04467779325736E-12
      3.30000000000000E-01   1.00000000000000E+00   0.00000000000000E+00   7.16201649069622E-13
      3.20000000000000E-01   1.00000000000000E+00   0.00000000000000E+00   4.90971451982156E-13
      3.10000000000000E-01   1.00000000000000E+00   0.00000000000000E+00   3.36548274410730E-13
      3.00000000000000E-01   1.00000000000000E+00   0.00000000000000E+00   2.30680402178577E-13
      2.90000000000000E-01   1.00000000000000E+00   0.00000000000000E+00   1.58105898368227E-13
      2.80000000000000E-01   1.00000000000000E+00   0.00000000000000E+00   1.08358059269897E-13
      2.70000000000000E-01   1.00000000000000E+00   0.00000000000000E+00   7.42594657148030E-14
      2.60000000000000E-01   1.00000000000000E+00   0.00000000000000E+00   5.08887244299195E-14
      2.50000000000000E-01   1.00000000000000E+00   0.00000000000000E+00   3.48716267353978E-14
      2.40000000000000E-01   1.00000000000000E+00   0.00000000000000E+00   2.38949240991076E-14
      2.30000000000001E-01   1.00000000000000E+00   0.00000000000000E+00   1.63728422524818E-14
      2.20000000000001E-01   1.00000000000000E+00   0.00000000000000E+00   1.12183770244853E-14
      2.10000000000001E-01   1.00000000000000E+00   0.00000000000000E+00   7.68646459584769E-15
      2.00000000000001E-01   1.00000000000000E+00   0.00000000000000E+00   5.26644805700817E-15
      1.90000000000001E-01   1.00000000000000E+00   0.00000000000000E+00   3.60835082978542E-15
      1.80000000000001E-01   1.00000000000000E+00   0.00000000000000E+00   2.47233205260153E-15
      1.70000000000001E-01   1.00000000000000E+00   0.00000000000000E+00   1.69403673180308E-15
      1.60000000000001E-01   1.00000000000000E+00   0.00000000000000E+00   1.16084333603578E-15
      1.50000000000001E-01   1.00000000000000E+00   0.00000000000000E+00   7.95582850942823E-16
      1.40000000000001E-01   1.00000000000000E+00   0.00000000000000E+00   5.45379702692098E-16
      1.30000000000001E-01   1.00000000000000E+00   0.00000000000000E+00   3.74005963209793E-16
      1.20000000000001E-01   1.00000000000000E+00   0.00000000000000E+00   2.56637350307297E-16
      1.10000000000001E-01   1.00000000000000E+00   0.00000000000000E+00   1.76263615592590E-16
      1.00000000000001E-01   1.00000000000000E+00   0.00000000000000E+00   1.21222843618019E-16
      9.00000000000010E-02   1.00000000000000E+00   0.00000000000000E+00   8.35428517556581E-17
      8.00000000000010E-02   1.00000000000000E+00   0.00000000000000E+00   5.39116744847803E-17
      7.00000000000012E-02   1.00000000000000E+00   0.00000000000000E+00   5.18372339452826E-17
      6.00000000000012E-02   1.00000000000000E+00   0.00000000000000E+00   2.79498156270596E-17
      5.00000000000012E-02   1.00000000000000E+00   0.00000000000000E+00   1.96888203690443E-17
      4.00000000000011E-02   1.00000000000000E+00   0.00000000000000E+00   1.42054493487432E-17
      3.00000000000011E-02   1.00000000000000E+00   0.00000000000000E+00  -3.44082200086609E-17
      2.00000000000014E-02   1.00000000000000E+00   0.00000000000000E+00   7.26561082293591E-18
      1.00000000000013E-02   1.00000000000000E+00   0.00000000000000E+00   5.50298095597121E-18
      0.00000000000000E+00   1.00000000000000E+00   0.00000000000000E+00   4.27608750572638E-18
}
