DF-ISE text

Info {
  version   = 1.0
  type      = xyplot
  datasets  = [
    "vdiff(g,f)" "vdiff(d,f)" "vdiff(s,f)" "i(t1,f)" ]
  functions = [
    Voltage Voltage Voltage Current ]
}

Data {
      1.20000000000000E+00   5.00000000000000E-02   0.00000000000000E+00   6.60532271410831E-07
      1.19000000000000E+00   5.00000000000000E-02   0.00000000000000E+00   6.50862425124708E-07
      1.18000000000000E+00   5.00000000000000E-02   0.00000000000000E+00   6.41024286633103E-07
      1.17000000000000E+00   5.00000000000000E-02   0.00000000000000E+00   6.31016794714639E-07
      1.16000000000000E+00   5.00000000000000E-02   0.00000000000000E+00   6.20839222035356E-07
      1.15000000000000E+00   5.00000000000000E-02   0.00000000000000E+00   6.10491154891331E-07
      1.14000000000000E+00   5.00000000000000E-02   0.00000000000000E+00   5.99972552494405E-07
      1.13000000000000E+00   5.00000000000000E-02   0.00000000000000E+00   5.89283789155548E-07
      1.12000000000000E+00   5.00000000000000E-02   0.00000000000000E+00   5.78425698342354E-07
      1.11000000000000E+00   5.00000000000000E-02   0.00000000000000E+00   5.67399618348901E-07
      1.10000000000000E+00   5.00000000000000E-02   0.00000000000000E+00   5.56207437994860E-07
      1.09000000000000E+00   5.00000000000000E-02   0.00000000000000E+00   5.44851610519919E-07
      1.08000000000000E+00   5.00000000000000E-02   0.00000000000000E+00   5.33335306184330E-07
      1.07000000000000E+00   5.00000000000000E-02   0.00000000000000E+00   5.21662361983123E-07
      1.06000000000000E+00   5.00000000000000E-02   0.00000000000000E+00   5.09837339523513E-07
      1.05000000000000E+00   5.00000000000000E-02   0.00000000000000E+00   4.97865570389438E-07
      1.04000000000000E+00   5.00000000000000E-02   0.00000000000000E+00   4.85753177582391E-07
      1.03000000000000E+00   5.00000000000000E-02   0.00000000000000E+00   4.73507097637640E-07
      1.02000000000000E+00   5.00000000000000E-02   0.00000000000000E+00   4.61135143771482E-07
      1.01000000000000E+00   5.00000000000000E-02   0.00000000000000E+00   4.48645959801757E-07
      1.00000000000000E+00   5.00000000000000E-02   0.00000000000000E+00   4.36049004296908E-07
      9.90000000000000E-01   5.00000000000000E-02   0.00000000000000E+00   4.23354526337372E-07
      9.80000000000000E-01   5.00000000000000E-02   0.00000000000000E+00   4.10573527172175E-07
      9.70000000000000E-01   5.00000000000000E-02   0.00000000000000E+00   3.97717702718514E-07
      9.60000000000000E-01   5.00000000000000E-02   0.00000000000000E+00   3.84799372180876E-07
      9.50000000000000E-01   5.00000000000000E-02   0.00000000000000E+00   3.71831394570633E-07
      9.40000000000000E-01   5.00000000000000E-02   0.00000000000000E+00   3.58827075403109E-07
      9.30000000000000E-01   5.00000000000000E-02   0.00000000000000E+00   3.45800066121731E-07
      9.20000000000000E-01   5.00000000000000E-02   0.00000000000000E+00   3.32764258820121E-07
      9.10000000000000E-01   5.00000000000000E-02   0.00000000000000E+00   3.19733678742387E-07
      9.00000000000000E-01   5.00000000000000E-02   0.00000000000000E+00   3.06722377112022E-07
      8.90000000000000E-01   5.00000000000000E-02   0.00000000000000E+00   2.93744327379550E-07
      8.80000000000000E-01   5.00000000000000E-02   0.00000000000000E+00   2.80813329219530E-07
      8.70000000000000E-01   5.00000000000000E-02   0.00000000000000E+00   2.67942926537410E-07
      8.60000000000000E-01   5.00000000000000E-02   0.00000000000000E+00   2.55146348039415E-07
      8.50000000000000E-01   5.00000000000000E-02   0.00000000000000E+00   2.42436480958409E-07
      8.40000000000000E-01   5.00000000000000E-02   0.00000000000000E+00   2.29825889590241E-07
      8.30000000000000E-01   5.00000000000000E-02   0.00000000000000E+00   2.17326889790202E-07
      8.20000000000000E-01   5.00000000000000E-02   0.00000000000000E+00   2.04951688295630E-07
      8.10000000000000E-01   5.00000000000000E-02   0.00000000000000E+00   1.92712591966109E-07
      8.00000000000000E-01   5.00000000000000E-02   0.00000000000000E+00   1.80622287481024E-07
      7.90000000000000E-01   5.00000000000000E-02   0.00000000000000E+00   1.68694187645852E-07
      7.80000000000000E-01   5.00000000000000E-02   0.00000000000000E+00   1.56942837104938E-07
      7.70000000000000E-01   5.00000000000000E-02   0.00000000000000E+00   1.45384368501792E-07
      7.60000000000000E-01   5.00000000000000E-02   0.00000000000000E+00   1.34036999424825E-07
      7.50000000000000E-01   5.00000000000000E-02   0.00000000000000E+00   1.22921564941452E-07
      7.40000000000000E-01   5.00000000000000E-02   0.00000000000000E+00   1.12062073764645E-07
      7.30000000000000E-01   5.00000000000000E-02   0.00000000000000E+00   1.01486285189056E-07
      7.20000000000000E-01   5.00000000000000E-02   0.00000000000000E+00   9.12262831898089E-08
      7.10000000000000E-01   5.00000000000000E-02   0.00000000000000E+00   8.13190218745008E-08
      6.99999999999999E-01   5.00000000000000E-02   0.00000000000000E+00   7.18067565589215E-08
      6.89999999999999E-01   5.00000000000000E-02   0.00000000000000E+00   6.27372341094835E-08
      6.79999999999999E-01   5.00000000000000E-02   0.00000000000000E+00   5.41634035169430E-08
      6.69999999999999E-01   5.00000000000000E-02   0.00000000000000E+00   4.61423073539028E-08
      6.59999999999999E-01   5.00000000000000E-02   0.00000000000000E+00   3.87327323605737E-08
      6.49999999999999E-01   5.00000000000000E-02   0.00000000000000E+00   3.19912346434976E-08
      6.39999999999999E-01   5.00000000000000E-02   0.00000000000000E+00   2.59664309585972E-08
      6.29999999999999E-01   5.00000000000000E-02   0.00000000000000E+00   2.06920365390720E-08
      6.19999999999999E-01   5.00000000000000E-02   0.00000000000000E+00   1.61799232207970E-08
      6.09999999999999E-01   5.00000000000000E-02   0.00000000000000E+00   1.24150932534907E-08
      5.99999999999999E-01   5.00000000000000E-02   0.00000000000000E+00   9.35442064633907E-09
      5.89999999999999E-01   5.00000000000000E-02   0.00000000000000E+00   6.93006987269307E-09
      5.79999999999999E-01   5.00000000000000E-02   0.00000000000000E+00   5.05698089869253E-09
      5.69999999999999E-01   5.00000000000000E-02   0.00000000000000E+00   3.64246015983435E-09
      5.59999999999999E-01   5.00000000000000E-02   0.00000000000000E+00   2.59542425083387E-09
      5.49999999999999E-01   5.00000000000000E-02   0.00000000000000E+00   1.83337279650570E-09
      5.39999999999999E-01   5.00000000000000E-02   0.00000000000000E+00   1.28629302935221E-09
      5.29999999999999E-01   5.00000000000000E-02   0.00000000000000E+00   8.97765632752317E-10
      5.19999999999999E-01   5.00000000000000E-02   0.00000000000000E+00   6.24125764399987E-10
      5.09999999999999E-01   5.00000000000000E-02   0.00000000000000E+00   4.32609588195012E-10
      5.00000000000000E-01   5.00000000000000E-02   0.00000000000000E+00   2.99198857383204E-10
      4.90000000000000E-01   5.00000000000000E-02   0.00000000000000E+00   2.06588116041029E-10
      4.80000000000000E-01   5.00000000000000E-02   0.00000000000000E+00   1.42465711108590E-10
      4.70000000000000E-01   5.00000000000000E-02   0.00000000000000E+00   9.81533425936574E-11
      4.60000000000000E-01   5.00000000000000E-02   0.00000000000000E+00   6.75747446146414E-11
      4.50000000000000E-01   5.00000000000000E-02   0.00000000000000E+00   4.64962006765791E-11
      4.40000000000000E-01   5.00000000000000E-02   0.00000000000000E+00   3.19782610849982E-11
      4.30000000000000E-01   5.00000000000000E-02   0.00000000000000E+00   2.19853688695853E-11
      4.20000000000000E-01   5.00000000000000E-02   0.00000000000000E+00   1.51106030718811E-11
      4.10000000000000E-01   5.00000000000000E-02   0.00000000000000E+00   1.03829230583918E-11
      4.00000000000000E-01   5.00000000000000E-02   0.00000000000000E+00   7.13284758056341E-12
      3.90000000000000E-01   5.00000000000000E-02   0.00000000000000E+00   4.89918428895803E-12
      3.80000000000000E-01   5.00000000000000E-02   0.00000000000000E+00   3.36443043015738E-12
      3.70000000000000E-01   5.00000000000000E-02   0.00000000000000E+00   2.31011585108228E-12
      3.60000000000000E-01   5.00000000000000E-02   0.00000000000000E+00   1.58597545269133E-12
      3.50000000000000E-01   5.00000000000000E-02   0.00000000000000E+00   1.08869105527934E-12
      3.40000000000000E-01   5.00000000000000E-02   0.00000000000000E+00   7.47244179724925E-13
      3.30000000000000E-01   5.00000000000000E-02   0.00000000000000E+00   5.12830342261487E-13
      3.20000000000000E-01   5.00000000000000E-02   0.00000000000000E+00   3.51917851354298E-13
      3.10000000000000E-01   5.00000000000000E-02   0.00000000000000E+00   2.41472712744268E-13
      3.00000000000000E-01   5.00000000000000E-02   0.00000000000000E+00   1.65674813416531E-13
      2.90000000000000E-01   5.00000000000000E-02   0.00000000000000E+00   1.13660314627542E-13
      2.80000000000000E-01   5.00000000000000E-02   0.00000000000000E+00   7.79699501665501E-14
      2.70000000000000E-01   5.00000000000000E-02   0.00000000000000E+00   5.34827441292101E-14
      2.60000000000000E-01   5.00000000000000E-02   0.00000000000000E+00   3.66834381996160E-14
      2.50000000000000E-01   5.00000000000000E-02   0.00000000000000E+00   2.51592778610601E-14
      2.40000000000000E-01   5.00000000000000E-02   0.00000000000000E+00   1.72589796409003E-14
      2.30000000000001E-01   5.00000000000000E-02   0.00000000000000E+00   1.18325207408490E-14
      2.20000000000001E-01   5.00000000000000E-02   0.00000000000000E+00   8.11394572321674E-15
      2.10000000000001E-01   5.00000000000000E-02   0.00000000000000E+00   5.56373553029378E-15
      2.00000000000001E-01   5.00000000000000E-02   0.00000000000000E+00   3.81489478861390E-15
      1.90000000000001E-01   5.00000000000000E-02   0.00000000000000E+00   2.61566812243192E-15
      1.80000000000001E-01   5.00000000000000E-02   0.00000000000000E+00   1.79336710556591E-15
      1.70000000000001E-01   5.00000000000000E-02   0.00000000000000E+00   1.22954705133822E-15
      1.60000000000001E-01   5.00000000000000E-02   0.00000000000000E+00   8.42973901408725E-16
      1.50000000000001E-01   5.00000000000000E-02   0.00000000000000E+00   5.77937553099537E-16
      1.40000000000001E-01   5.00000000000000E-02   0.00000000000000E+00   3.96234235211679E-16
      1.30000000000001E-01   5.00000000000000E-02   0.00000000000000E+00   2.71666594433271E-16
      1.20000000000001E-01   5.00000000000000E-02   0.00000000000000E+00   1.86271292958423E-16
      1.10000000000001E-01   5.00000000000000E-02   0.00000000000000E+00   1.27731677795531E-16
      1.00000000000001E-01   5.00000000000000E-02   0.00000000000000E+00   8.76026955421371E-17
      9.00000000000010E-02   5.00000000000000E-02   0.00000000000000E+00   6.19883750347885E-17
      8.00000000000010E-02   5.00000000000000E-02   0.00000000000000E+00   4.12393214922245E-17
      7.00000000000012E-02   5.00000000000000E-02   0.00000000000000E+00   2.83144465195406E-17
      6.00000000000012E-02   5.00000000000000E-02   0.00000000000000E+00   1.94548702659978E-17
      5.00000000000012E-02   5.00000000000000E-02   0.00000000000000E+00   1.33816915779439E-17
      4.00000000000011E-02   5.00000000000000E-02   0.00000000000000E+00   9.22095860184652E-18
      3.00000000000011E-02   5.00000000000000E-02   0.00000000000000E+00   5.31517413803045E-18
      2.00000000000014E-02   5.00000000000000E-02   0.00000000000000E+00   4.40640837563830E-18
      1.00000000000013E-02   5.00000000000000E-02   0.00000000000000E+00   3.06395672993339E-18
      0.00000000000000E+00   5.00000000000000E-02   0.00000000000000E+00   2.15159308362922E-18
}
