DF-ISE text

Info {
  version   = 1.0
  type      = xyplot
  datasets  = [
    "vdiff(g,f)" "vdiff(d,f)" "vdiff(s,f)" "i(t1,f)" ]
  functions = [
    Voltage Voltage Voltage Current ]
}

Data {
      1.20000000000000E+00   5.00000000000000E-02   0.00000000000000E+00   7.15642705946450E-07
      1.19000000000000E+00   5.00000000000000E-02   0.00000000000000E+00   7.05674520916723E-07
      1.18000000000000E+00   5.00000000000000E-02   0.00000000000000E+00   6.95546420407063E-07
      1.17000000000000E+00   5.00000000000000E-02   0.00000000000000E+00   6.85257709964572E-07
      1.16000000000000E+00   5.00000000000000E-02   0.00000000000000E+00   6.74807964696752E-07
      1.15000000000000E+00   5.00000000000000E-02   0.00000000000000E+00   6.64197044998742E-07
      1.14000000000000E+00   5.00000000000000E-02   0.00000000000000E+00   6.53425185502879E-07
      1.13000000000000E+00   5.00000000000000E-02   0.00000000000000E+00   6.42492964663826E-07
      1.12000000000000E+00   5.00000000000000E-02   0.00000000000000E+00   6.31401361787942E-07
      1.11000000000000E+00   5.00000000000000E-02   0.00000000000000E+00   6.20151794129710E-07
      1.10000000000000E+00   5.00000000000000E-02   0.00000000000000E+00   6.08746154357259E-07
      1.09000000000000E+00   5.00000000000000E-02   0.00000000000000E+00   5.97186854722977E-07
      1.08000000000000E+00   5.00000000000000E-02   0.00000000000000E+00   5.85476837555509E-07
      1.07000000000000E+00   5.00000000000000E-02   0.00000000000000E+00   5.73619632792603E-07
      1.06000000000000E+00   5.00000000000000E-02   0.00000000000000E+00   5.61619396561688E-07
      1.05000000000000E+00   5.00000000000000E-02   0.00000000000000E+00   5.49480966234820E-07
      1.04000000000000E+00   5.00000000000000E-02   0.00000000000000E+00   5.37209826076741E-07
      1.03000000000000E+00   5.00000000000000E-02   0.00000000000000E+00   5.24812151120227E-07
      1.02000000000000E+00   5.00000000000000E-02   0.00000000000000E+00   5.12294817757158E-07
      1.01000000000000E+00   5.00000000000000E-02   0.00000000000000E+00   4.99665387672814E-07
      1.00000000000000E+00   5.00000000000000E-02   0.00000000000000E+00   4.86932134806495E-07
      9.90000000000000E-01   5.00000000000000E-02   0.00000000000000E+00   4.74104012813800E-07
      9.80000000000000E-01   5.00000000000000E-02   0.00000000000000E+00   4.61190627329171E-07
      9.70000000000000E-01   5.00000000000000E-02   0.00000000000000E+00   4.48202162326533E-07
      9.60000000000000E-01   5.00000000000000E-02   0.00000000000000E+00   4.35149339727133E-07
      9.50000000000000E-01   5.00000000000000E-02   0.00000000000000E+00   4.22043352861142E-07
      9.40000000000000E-01   5.00000000000000E-02   0.00000000000000E+00   4.08895790675373E-07
      9.30000000000000E-01   5.00000000000000E-02   0.00000000000000E+00   3.95718555066827E-07
      9.20000000000000E-01   5.00000000000000E-02   0.00000000000000E+00   3.82523773429581E-07
      9.10000000000000E-01   5.00000000000000E-02   0.00000000000000E+00   3.69323708240080E-07
      9.00000000000000E-01   5.00000000000000E-02   0.00000000000000E+00   3.56130665100969E-07
      8.90000000000000E-01   5.00000000000000E-02   0.00000000000000E+00   3.42956900321434E-07
      8.80000000000000E-01   5.00000000000000E-02   0.00000000000000E+00   3.29814529158097E-07
      8.70000000000000E-01   5.00000000000000E-02   0.00000000000000E+00   3.16715436546863E-07
      8.60000000000000E-01   5.00000000000000E-02   0.00000000000000E+00   3.03671193634346E-07
      8.50000000000000E-01   5.00000000000000E-02   0.00000000000000E+00   2.90692985509942E-07
      8.40000000000000E-01   5.00000000000000E-02   0.00000000000000E+00   2.77791557794890E-07
      8.30000000000000E-01   5.00000000000000E-02   0.00000000000000E+00   2.64977191520809E-07
      8.20000000000000E-01   5.00000000000000E-02   0.00000000000000E+00   2.52259716389572E-07
      8.10000000000000E-01   5.00000000000000E-02   0.00000000000000E+00   2.39648571622972E-07
      8.00000000000000E-01   5.00000000000000E-02   0.00000000000000E+00   2.27152921161506E-07
      7.90000000000000E-01   5.00000000000000E-02   0.00000000000000E+00   2.14781826342944E-07
      7.80000000000000E-01   5.00000000000000E-02   0.00000000000000E+00   2.02544475102336E-07
      7.70000000000000E-01   5.00000000000000E-02   0.00000000000000E+00   1.90450463003650E-07
      7.60000000000000E-01   5.00000000000000E-02   0.00000000000000E+00   1.78510118750884E-07
      7.50000000000000E-01   5.00000000000000E-02   0.00000000000000E+00   1.66734865683690E-07
      7.40000000000000E-01   5.00000000000000E-02   0.00000000000000E+00   1.55137611265593E-07
      7.30000000000000E-01   5.00000000000000E-02   0.00000000000000E+00   1.43733158552902E-07
      7.20000000000000E-01   5.00000000000000E-02   0.00000000000000E+00   1.32538636148516E-07
      7.10000000000000E-01   5.00000000000000E-02   0.00000000000000E+00   1.21573949254124E-07
      6.99999999999999E-01   5.00000000000000E-02   0.00000000000000E+00   1.10862249278874E-07
      6.89999999999999E-01   5.00000000000000E-02   0.00000000000000E+00   1.00430430336512E-07
      6.79999999999999E-01   5.00000000000000E-02   0.00000000000000E+00   9.03096351834128E-08
      6.69999999999999E-01   5.00000000000000E-02   0.00000000000000E+00   8.05357556496571E-08
      6.59999999999999E-01   5.00000000000000E-02   0.00000000000000E+00   7.11498465616817E-08
      6.49999999999999E-01   5.00000000000000E-02   0.00000000000000E+00   6.21983309842206E-08
      6.39999999999999E-01   5.00000000000000E-02   0.00000000000000E+00   5.37327637967098E-08
      6.29999999999999E-01   5.00000000000000E-02   0.00000000000000E+00   4.58088175198940E-08
      6.19999999999999E-01   5.00000000000000E-02   0.00000000000000E+00   3.84840702162009E-08
      6.09999999999999E-01   5.00000000000000E-02   0.00000000000000E+00   3.18142040224042E-08
      5.99999999999999E-01   5.00000000000000E-02   0.00000000000000E+00   2.58474816216420E-08
      5.89999999999999E-01   5.00000000000000E-02   0.00000000000000E+00   2.06179346718942E-08
      5.79999999999999E-01   5.00000000000000E-02   0.00000000000000E+00   1.61384779052977E-08
      5.69999999999999E-01   5.00000000000000E-02   0.00000000000000E+00   1.23957991806208E-08
      5.59999999999999E-01   5.00000000000000E-02   0.00000000000000E+00   9.34887734980538E-09
      5.49999999999999E-01   5.00000000000000E-02   0.00000000000000E+00   6.93209545126416E-09
      5.39999999999999E-01   5.00000000000000E-02   0.00000000000000E+00   5.06242994967362E-09
      5.29999999999999E-01   5.00000000000000E-02   0.00000000000000E+00   3.64883760817425E-09
      5.19999999999999E-01   5.00000000000000E-02   0.00000000000000E+00   2.60142295101684E-09
      5.09999999999999E-01   5.00000000000000E-02   0.00000000000000E+00   1.83844568138462E-09
      5.00000000000000E-01   5.00000000000000E-02   0.00000000000000E+00   1.29032181681331E-09
      4.90000000000000E-01   5.00000000000000E-02   0.00000000000000E+00   9.00838759894583E-10
      4.80000000000000E-01   5.00000000000000E-02   0.00000000000000E+00   6.26407618796857E-10
      4.70000000000000E-01   5.00000000000000E-02   0.00000000000000E+00   4.34273116089867E-10
      4.60000000000000E-01   5.00000000000000E-02   0.00000000000000E+00   3.00396424118498E-10
      4.50000000000000E-01   5.00000000000000E-02   0.00000000000000E+00   2.07442776600022E-10
      4.40000000000000E-01   5.00000000000000E-02   0.00000000000000E+00   1.43071996594646E-10
      4.30000000000000E-01   5.00000000000000E-02   0.00000000000000E+00   9.85816477349815E-11
      4.20000000000000E-01   5.00000000000000E-02   0.00000000000000E+00   6.78764446178562E-11
      4.10000000000000E-01   5.00000000000000E-02   0.00000000000000E+00   4.67082924489434E-11
      4.00000000000000E-01   5.00000000000000E-02   0.00000000000000E+00   3.21271490430553E-11
      3.90000000000000E-01   5.00000000000000E-02   0.00000000000000E+00   2.20897832159271E-11
      3.80000000000000E-01   5.00000000000000E-02   0.00000000000000E+00   1.51837751589577E-11
      3.70000000000000E-01   5.00000000000000E-02   0.00000000000000E+00   1.04341731916594E-11
      3.60000000000000E-01   5.00000000000000E-02   0.00000000000000E+00   7.16872824641198E-12
      3.50000000000000E-01   5.00000000000000E-02   0.00000000000000E+00   4.92429586669402E-12
      3.40000000000000E-01   5.00000000000000E-02   0.00000000000000E+00   3.38199971169862E-12
      3.30000000000000E-01   5.00000000000000E-02   0.00000000000000E+00   2.32240465211267E-12
      3.20000000000000E-01   5.00000000000000E-02   0.00000000000000E+00   1.59456841752626E-12
      3.10000000000000E-01   5.00000000000000E-02   0.00000000000000E+00   1.09469798718913E-12
      3.00000000000000E-01   5.00000000000000E-02   0.00000000000000E+00   7.51442097304924E-13
      2.90000000000000E-01   5.00000000000000E-02   0.00000000000000E+00   5.15763128826700E-13
      2.80000000000000E-01   5.00000000000000E-02   0.00000000000000E+00   3.53966113947438E-13
      2.70000000000000E-01   5.00000000000000E-02   0.00000000000000E+00   2.42902735614707E-13
      2.60000000000000E-01   5.00000000000000E-02   0.00000000000000E+00   1.66672851363686E-13
      2.50000000000000E-01   5.00000000000000E-02   0.00000000000000E+00   1.14356610738945E-13
      2.40000000000000E-01   5.00000000000000E-02   0.00000000000000E+00   7.84555537061900E-14
      2.30000000000001E-01   5.00000000000000E-02   0.00000000000000E+00   5.38212850594284E-14
      2.20000000000001E-01   5.00000000000000E-02   0.00000000000000E+00   3.69193694812120E-14
      2.10000000000001E-01   5.00000000000000E-02   0.00000000000000E+00   2.53236440307753E-14
      2.00000000000001E-01   5.00000000000000E-02   0.00000000000000E+00   1.73688770715761E-14
      1.90000000000001E-01   5.00000000000000E-02   0.00000000000000E+00   1.19122249836240E-14
      1.80000000000001E-01   5.00000000000000E-02   0.00000000000000E+00   8.16942991628951E-15
      1.70000000000001E-01   5.00000000000000E-02   0.00000000000000E+00   5.60235475266082E-15
      1.60000000000001E-01   5.00000000000000E-02   0.00000000000000E+00   3.84177487344027E-15
      1.50000000000001E-01   5.00000000000000E-02   0.00000000000000E+00   2.63437977636346E-15
      1.40000000000001E-01   5.00000000000000E-02   0.00000000000000E+00   1.80639669378079E-15
      1.30000000000001E-01   5.00000000000000E-02   0.00000000000000E+00   1.23862521974745E-15
      1.20000000000001E-01   5.00000000000000E-02   0.00000000000000E+00   8.49304841651704E-16
      1.10000000000001E-01   5.00000000000000E-02   0.00000000000000E+00   5.82358868266282E-16
      1.00000000000001E-01   5.00000000000000E-02   0.00000000000000E+00   3.99328408968533E-16
      9.00000000000010E-02   5.00000000000000E-02   0.00000000000000E+00   2.73838634351448E-16
      8.00000000000010E-02   5.00000000000000E-02   0.00000000000000E+00   1.87802747424456E-16
      7.00000000000012E-02   5.00000000000000E-02   0.00000000000000E+00   1.28818149946051E-16
      6.00000000000012E-02   5.00000000000000E-02   0.00000000000000E+00   8.83804188601276E-17
      5.00000000000012E-02   5.00000000000000E-02   0.00000000000000E+00   6.11088936024421E-17
      4.00000000000011E-02   5.00000000000000E-02   0.00000000000000E+00   2.27051721242726E-17
      3.00000000000011E-02   5.00000000000000E-02   0.00000000000000E+00   2.86271803093288E-17
      2.00000000000014E-02   5.00000000000000E-02   0.00000000000000E+00   1.92671931623021E-17
      1.00000000000013E-02   5.00000000000000E-02   0.00000000000000E+00   7.17832829714308E-20
      0.00000000000000E+00   5.00000000000000E-02   0.00000000000000E+00   9.37316188056188E-18
}
