DF-ISE text

Info {
  version   = 1.0
  type      = xyplot
  datasets  = [
    "vdiff(g,f)" "vdiff(d,f)" "vdiff(s,f)" "i(t1,f)" ]
  functions = [
    Voltage Voltage Voltage Current ]
}

Data {
      1.20000000000000E+00   5.00000000000000E-02   0.00000000000000E+00   5.98815666539668E-07
      1.19000000000000E+00   5.00000000000000E-02   0.00000000000000E+00   5.89740542525320E-07
      1.18000000000000E+00   5.00000000000000E-02   0.00000000000000E+00   5.80495979870535E-07
      1.17000000000000E+00   5.00000000000000E-02   0.00000000000000E+00   5.71080375046226E-07
      1.16000000000000E+00   5.00000000000000E-02   0.00000000000000E+00   5.61492398536310E-07
      1.15000000000000E+00   5.00000000000000E-02   0.00000000000000E+00   5.51731022157660E-07
      1.14000000000000E+00   5.00000000000000E-02   0.00000000000000E+00   5.41795554290383E-07
      1.13000000000000E+00   5.00000000000000E-02   0.00000000000000E+00   5.31685667591293E-07
      1.12000000000000E+00   5.00000000000000E-02   0.00000000000000E+00   5.21401480601284E-07
      1.11000000000000E+00   5.00000000000000E-02   0.00000000000000E+00   5.10943558606047E-07
      1.10000000000000E+00   5.00000000000000E-02   0.00000000000000E+00   5.00312952095593E-07
      1.09000000000000E+00   5.00000000000000E-02   0.00000000000000E+00   4.89511299245143E-07
      1.08000000000000E+00   5.00000000000000E-02   0.00000000000000E+00   4.78540847075704E-07
      1.07000000000000E+00   5.00000000000000E-02   0.00000000000000E+00   4.67404493259175E-07
      1.06000000000000E+00   5.00000000000000E-02   0.00000000000000E+00   4.56105834685633E-07
      1.05000000000000E+00   5.00000000000000E-02   0.00000000000000E+00   4.44649222510118E-07
      1.04000000000000E+00   5.00000000000000E-02   0.00000000000000E+00   4.33039781176631E-07
      1.03000000000000E+00   5.00000000000000E-02   0.00000000000000E+00   4.21283523989845E-07
      1.02000000000000E+00   5.00000000000000E-02   0.00000000000000E+00   4.09387324580703E-07
      1.01000000000000E+00   5.00000000000000E-02   0.00000000000000E+00   3.97358983286839E-07
      1.00000000000000E+00   5.00000000000000E-02   0.00000000000000E+00   3.85207201390016E-07
      9.90000000000000E-01   5.00000000000000E-02   0.00000000000000E+00   3.72941604094557E-07
      9.80000000000000E-01   5.00000000000000E-02   0.00000000000000E+00   3.60572732484034E-07
      9.70000000000000E-01   5.00000000000000E-02   0.00000000000000E+00   3.48112021503590E-07
      9.60000000000000E-01   5.00000000000000E-02   0.00000000000000E+00   3.35571764421195E-07
      9.50000000000000E-01   5.00000000000000E-02   0.00000000000000E+00   3.22965064180239E-07
      9.40000000000000E-01   5.00000000000000E-02   0.00000000000000E+00   3.10305772255150E-07
      9.30000000000000E-01   5.00000000000000E-02   0.00000000000000E+00   2.97608415770009E-07
      9.20000000000000E-01   5.00000000000000E-02   0.00000000000000E+00   2.84888113972384E-07
      9.10000000000000E-01   5.00000000000000E-02   0.00000000000000E+00   2.72160486062333E-07
      9.00000000000000E-01   5.00000000000000E-02   0.00000000000000E+00   2.59441554274208E-07
      8.90000000000000E-01   5.00000000000000E-02   0.00000000000000E+00   2.46747649238565E-07
      8.80000000000000E-01   5.00000000000000E-02   0.00000000000000E+00   2.34095328868997E-07
      8.70000000000000E-01   5.00000000000000E-02   0.00000000000000E+00   2.21501326663758E-07
      8.60000000000000E-01   5.00000000000000E-02   0.00000000000000E+00   2.08982549254652E-07
      8.50000000000000E-01   5.00000000000000E-02   0.00000000000000E+00   1.96556144949217E-07
      8.40000000000000E-01   5.00000000000000E-02   0.00000000000000E+00   1.84239663811056E-07
      8.30000000000000E-01   5.00000000000000E-02   0.00000000000000E+00   1.72051325101168E-07
      8.20000000000000E-01   5.00000000000000E-02   0.00000000000000E+00   1.60010400158830E-07
      8.10000000000000E-01   5.00000000000000E-02   0.00000000000000E+00   1.48137709302549E-07
      8.00000000000000E-01   5.00000000000000E-02   0.00000000000000E+00   1.36456221626535E-07
      7.90000000000000E-01   5.00000000000000E-02   0.00000000000000E+00   1.24991737786865E-07
      7.80000000000000E-01   5.00000000000000E-02   0.00000000000000E+00   1.13773628033300E-07
      7.70000000000000E-01   5.00000000000000E-02   0.00000000000000E+00   1.02835588213353E-07
      7.60000000000000E-01   5.00000000000000E-02   0.00000000000000E+00   9.22163688549436E-08
      7.50000000000000E-01   5.00000000000000E-02   0.00000000000000E+00   8.19603965205283E-08
      7.40000000000000E-01   5.00000000000000E-02   0.00000000000000E+00   7.21181771938286E-08
      7.30000000000000E-01   5.00000000000000E-02   0.00000000000000E+00   6.27462880513693E-08
      7.20000000000000E-01   5.00000000000000E-02   0.00000000000000E+00   5.39066804013766E-08
      7.10000000000000E-01   5.00000000000000E-02   0.00000000000000E+00   4.56649004310081E-08
      6.99999999999999E-01   5.00000000000000E-02   0.00000000000000E+00   3.80867885648511E-08
      6.89999999999999E-01   5.00000000000000E-02   0.00000000000000E+00   3.12333421791565E-08
      6.79999999999999E-01   5.00000000000000E-02   0.00000000000000E+00   2.51538474021930E-08
      6.69999999999999E-01   5.00000000000000E-02   0.00000000000000E+00   1.98781320450925E-08
      6.59999999999999E-01   5.00000000000000E-02   0.00000000000000E+00   1.54096330735477E-08
      6.49999999999999E-01   5.00000000000000E-02   0.00000000000000E+00   1.17214126612957E-08
      6.39999999999999E-01   5.00000000000000E-02   0.00000000000000E+00   8.75681984278519E-09
      6.29999999999999E-01   5.00000000000000E-02   0.00000000000000E+00   6.43515366283153E-09
      6.19999999999999E-01   5.00000000000000E-02   0.00000000000000E+00   4.66101264642067E-09
      6.09999999999999E-01   5.00000000000000E-02   0.00000000000000E+00   3.33485934112194E-09
      5.99999999999999E-01   5.00000000000000E-02   0.00000000000000E+00   2.36224845676414E-09
      5.89999999999999E-01   5.00000000000000E-02   0.00000000000000E+00   1.66007656053227E-09
      5.79999999999999E-01   5.00000000000000E-02   0.00000000000000E+00   1.15949306448751E-09
      5.69999999999999E-01   5.00000000000000E-02   0.00000000000000E+00   8.06099985034080E-10
      5.59999999999999E-01   5.00000000000000E-02   0.00000000000000E+00   5.58467026735527E-10
      5.49999999999999E-01   5.00000000000000E-02   0.00000000000000E+00   3.85906248248256E-10
      5.39999999999999E-01   5.00000000000000E-02   0.00000000000000E+00   2.66153248827938E-10
      5.29999999999999E-01   5.00000000000000E-02   0.00000000000000E+00   1.83299416286046E-10
      5.19999999999999E-01   5.00000000000000E-02   0.00000000000000E+00   1.26103058194874E-10
      5.09999999999999E-01   5.00000000000000E-02   0.00000000000000E+00   8.66839118883666E-11
      5.00000000000000E-01   5.00000000000000E-02   0.00000000000000E+00   5.95499877284484E-11
      4.90000000000000E-01   5.00000000000000E-02   0.00000000000000E+00   4.08897614594251E-11
      4.80000000000000E-01   5.00000000000000E-02   0.00000000000000E+00   2.80659972426530E-11
      4.70000000000000E-01   5.00000000000000E-02   0.00000000000000E+00   1.92579956537691E-11
      4.60000000000000E-01   5.00000000000000E-02   0.00000000000000E+00   1.32108214037573E-11
      4.50000000000000E-01   5.00000000000000E-02   0.00000000000000E+00   9.06054213042573E-12
      4.40000000000000E-01   5.00000000000000E-02   0.00000000000000E+00   6.21294352105262E-12
      4.30000000000000E-01   5.00000000000000E-02   0.00000000000000E+00   4.25960809952628E-12
      4.20000000000000E-01   5.00000000000000E-02   0.00000000000000E+00   2.91997294090870E-12
      4.10000000000000E-01   5.00000000000000E-02   0.00000000000000E+00   2.00138781875854E-12
      4.00000000000000E-01   5.00000000000000E-02   0.00000000000000E+00   1.37161434915700E-12
      3.90000000000000E-01   5.00000000000000E-02   0.00000000000000E+00   9.39907988856602E-13
      3.80000000000000E-01   5.00000000000000E-02   0.00000000000000E+00   6.44013188952784E-13
      3.70000000000000E-01   5.00000000000000E-02   0.00000000000000E+00   4.41228265128562E-13
      3.60000000000000E-01   5.00000000000000E-02   0.00000000000000E+00   3.02269060077999E-13
      3.50000000000000E-01   5.00000000000000E-02   0.00000000000000E+00   2.07056201031521E-13
      3.40000000000000E-01   5.00000000000000E-02   0.00000000000000E+00   1.41823797594726E-13
      3.30000000000000E-01   5.00000000000000E-02   0.00000000000000E+00   9.71355670724276E-14
      3.20000000000000E-01   5.00000000000000E-02   0.00000000000000E+00   6.65238854371991E-14
      3.10000000000000E-01   5.00000000000000E-02   0.00000000000000E+00   4.55563444764714E-14
      3.00000000000000E-01   5.00000000000000E-02   0.00000000000000E+00   3.11956328278914E-14
      2.90000000000000E-01   5.00000000000000E-02   0.00000000000000E+00   2.13606338192373E-14
      2.80000000000000E-01   5.00000000000000E-02   0.00000000000000E+00   1.46255307477936E-14
      2.70000000000000E-01   5.00000000000000E-02   0.00000000000000E+00   1.00135510815143E-14
      2.60000000000000E-01   5.00000000000000E-02   0.00000000000000E+00   6.85559993814538E-15
      2.50000000000000E-01   5.00000000000000E-02   0.00000000000000E+00   4.69337899832895E-15
      2.40000000000000E-01   5.00000000000000E-02   0.00000000000000E+00   3.21299898213932E-15
      2.30000000000001E-01   5.00000000000000E-02   0.00000000000000E+00   2.19949208346313E-15
      2.20000000000001E-01   5.00000000000000E-02   0.00000000000000E+00   1.50564732612580E-15
      2.10000000000001E-01   5.00000000000000E-02   0.00000000000000E+00   1.03066054154297E-15
      2.00000000000001E-01   5.00000000000000E-02   0.00000000000000E+00   7.05509190691817E-16
      1.90000000000001E-01   5.00000000000000E-02   0.00000000000000E+00   4.82934686832981E-16
      1.80000000000001E-01   5.00000000000000E-02   0.00000000000000E+00   3.30581324020356E-16
      1.70000000000001E-01   5.00000000000000E-02   0.00000000000000E+00   2.26297596559771E-16
      1.60000000000001E-01   5.00000000000000E-02   0.00000000000000E+00   1.54918647577717E-16
      1.50000000000001E-01   5.00000000000000E-02   0.00000000000000E+00   1.06063072624742E-16
      1.40000000000001E-01   5.00000000000000E-02   0.00000000000000E+00   7.26243510048755E-17
      1.30000000000001E-01   5.00000000000000E-02   0.00000000000000E+00   4.97391844806412E-17
      1.20000000000001E-01   5.00000000000000E-02   0.00000000000000E+00   3.40788779829574E-17
      1.10000000000001E-01   5.00000000000000E-02   0.00000000000000E+00   2.33583088872038E-17
      1.00000000000001E-01   5.00000000000000E-02   0.00000000000000E+00   1.60143440747121E-17
      9.00000000000010E-02   5.00000000000000E-02   0.00000000000000E+00   1.09913957795468E-17
      8.00000000000010E-02   5.00000000000000E-02   0.00000000000000E+00   7.55536975679299E-18
      7.00000000000012E-02   5.00000000000000E-02   0.00000000000000E+00   5.19921261951115E-18
      6.00000000000012E-02   5.00000000000000E-02   0.00000000000000E+00   3.58777991929657E-18
      5.00000000000012E-02   5.00000000000000E-02   0.00000000000000E+00   2.48464695983256E-18
      4.00000000000011E-02   5.00000000000000E-02   0.00000000000000E+00   1.72963933691437E-18
      3.00000000000011E-02   5.00000000000000E-02   0.00000000000000E+00   1.21281794525598E-18
      2.00000000000014E-02   5.00000000000000E-02   0.00000000000000E+00   8.59768465250466E-19
      1.00000000000013E-02   5.00000000000000E-02   0.00000000000000E+00   6.27514147914920E-19
      0.00000000000000E+00   5.00000000000000E-02   0.00000000000000E+00   5.27044858905387E-19
}
