DF-ISE text

Info {
  version   = 1.0
  type      = xyplot
  datasets  = [
    "vdiff(g,f)" "vdiff(d,f)" "vdiff(s,f)" "i(t1,f)" ]
  functions = [
    Voltage Voltage Voltage Current ]
}

Data {
      1.20000000000000E+00   1.00000000000000E+00   0.00000000000000E+00   2.59807629923542E-06
      1.19000000000000E+00   1.00000000000000E+00   0.00000000000000E+00   2.50568670561805E-06
      1.18000000000000E+00   1.00000000000000E+00   0.00000000000000E+00   2.41416175231764E-06
      1.17000000000000E+00   1.00000000000000E+00   0.00000000000000E+00   2.32356227065314E-06
      1.16000000000000E+00   1.00000000000000E+00   0.00000000000000E+00   2.23394919922766E-06
      1.15000000000000E+00   1.00000000000000E+00   0.00000000000000E+00   2.14538352568925E-06
      1.14000000000000E+00   1.00000000000000E+00   0.00000000000000E+00   2.05792619795328E-06
      1.13000000000000E+00   1.00000000000000E+00   0.00000000000000E+00   1.97163801679213E-06
      1.12000000000000E+00   1.00000000000000E+00   0.00000000000000E+00   1.88657954061243E-06
      1.11000000000000E+00   1.00000000000000E+00   0.00000000000000E+00   1.80281099687747E-06
      1.10000000000000E+00   1.00000000000000E+00   0.00000000000000E+00   1.72039210618646E-06
      1.09000000000000E+00   1.00000000000000E+00   0.00000000000000E+00   1.63938210192965E-06
      1.08000000000000E+00   1.00000000000000E+00   0.00000000000000E+00   1.55983992865006E-06
      1.07000000000000E+00   1.00000000000000E+00   0.00000000000000E+00   1.48182331725644E-06
      1.06000000000000E+00   1.00000000000000E+00   0.00000000000000E+00   1.40538938360218E-06
      1.05000000000000E+00   1.00000000000000E+00   0.00000000000000E+00   1.33059409273935E-06
      1.04000000000000E+00   1.00000000000000E+00   0.00000000000000E+00   1.25749244191998E-06
      1.03000000000000E+00   1.00000000000000E+00   0.00000000000000E+00   1.18613879420381E-06
      1.02000000000000E+00   1.00000000000000E+00   0.00000000000000E+00   1.11658502360393E-06
      1.01000000000000E+00   1.00000000000000E+00   0.00000000000000E+00   1.04888231710616E-06
      1.00000000000000E+00   1.00000000000000E+00   0.00000000000000E+00   9.83079327316486E-07
      9.90000000000000E-01   1.00000000000000E+00   0.00000000000000E+00   9.19223415316970E-07
      9.80000000000000E-01   1.00000000000000E+00   0.00000000000000E+00   8.57359951746450E-07
      9.70000000000000E-01   1.00000000000000E+00   0.00000000000000E+00   7.97531784453843E-07
      9.60000000000000E-01   1.00000000000000E+00   0.00000000000000E+00   7.39779389922798E-07
      9.50000000000000E-01   1.00000000000000E+00   0.00000000000000E+00   6.84140735256844E-07
      9.40000000000000E-01   1.00000000000000E+00   0.00000000000000E+00   6.30651130739524E-07
      9.30000000000000E-01   1.00000000000000E+00   0.00000000000000E+00   5.79343077896827E-07
      9.20000000000000E-01   1.00000000000000E+00   0.00000000000000E+00   5.30246084021604E-07
      9.10000000000000E-01   1.00000000000000E+00   0.00000000000000E+00   4.83386524441202E-07
      9.00000000000000E-01   1.00000000000000E+00   0.00000000000000E+00   4.38787694641168E-07
      8.90000000000000E-01   1.00000000000000E+00   0.00000000000000E+00   3.96469278591211E-07
      8.80000000000000E-01   1.00000000000000E+00   0.00000000000000E+00   3.56447515425639E-07
      8.70000000000000E-01   1.00000000000000E+00   0.00000000000000E+00   3.18734651634146E-07
      8.60000000000000E-01   1.00000000000000E+00   0.00000000000000E+00   2.83338758577504E-07
      8.50000000000000E-01   1.00000000000000E+00   0.00000000000000E+00   2.50263405574815E-07
      8.40000000000000E-01   1.00000000000000E+00   0.00000000000000E+00   2.19507197783000E-07
      8.30000000000000E-01   1.00000000000000E+00   0.00000000000000E+00   1.91063167086630E-07
      8.20000000000000E-01   1.00000000000000E+00   0.00000000000000E+00   1.64917978637982E-07
      8.10000000000000E-01   1.00000000000000E+00   0.00000000000000E+00   1.41050913830314E-07
      8.00000000000000E-01   1.00000000000000E+00   0.00000000000000E+00   1.19432593762456E-07
      7.90000000000000E-01   1.00000000000000E+00   0.00000000000000E+00   1.00023416497006E-07
      7.80000000000000E-01   1.00000000000000E+00   0.00000000000000E+00   8.27717131453532E-08
      7.70000000000000E-01   1.00000000000000E+00   0.00000000000000E+00   6.76116598253564E-08
      7.60000000000000E-01   1.00000000000000E+00   0.00000000000000E+00   5.44610378166992E-08
      7.50000000000000E-01   1.00000000000000E+00   0.00000000000000E+00   4.32191018772688E-08
      7.40000000000000E-01   1.00000000000000E+00   0.00000000000000E+00   3.37649308465253E-08
      7.30000000000000E-01   1.00000000000000E+00   0.00000000000000E+00   2.59568267342335E-08
      7.20000000000000E-01   1.00000000000000E+00   0.00000000000000E+00   1.96334804313005E-08
      7.10000000000000E-01   1.00000000000000E+00   0.00000000000000E+00   1.46175806000977E-08
      6.99999999999999E-01   1.00000000000000E+00   0.00000000000000E+00   1.07221623608558E-08
      6.89999999999999E-01   1.00000000000000E+00   0.00000000000000E+00   7.75922336627612E-09
      6.79999999999999E-01   1.00000000000000E+00   0.00000000000000E+00   5.54922763756935E-09
      6.69999999999999E-01   1.00000000000000E+00   0.00000000000000E+00   3.92957864290127E-09
      6.59999999999999E-01   1.00000000000000E+00   0.00000000000000E+00   2.76039450951128E-09
      6.49999999999999E-01   1.00000000000000E+00   0.00000000000000E+00   1.92685948618527E-09
      6.39999999999999E-01   1.00000000000000E+00   0.00000000000000E+00   1.33849828543439E-09
      6.29999999999999E-01   1.00000000000000E+00   0.00000000000000E+00   9.26384644242102E-10
      6.19999999999999E-01   1.00000000000000E+00   0.00000000000000E+00   6.39403918553618E-10
      6.09999999999999E-01   1.00000000000000E+00   0.00000000000000E+00   4.40430637474333E-10
      5.99999999999999E-01   1.00000000000000E+00   0.00000000000000E+00   3.02919683749605E-10
      5.89999999999999E-01   1.00000000000000E+00   0.00000000000000E+00   2.08110431053442E-10
      5.79999999999999E-01   1.00000000000000E+00   0.00000000000000E+00   1.42856305780252E-10
      5.69999999999999E-01   1.00000000000000E+00   0.00000000000000E+00   9.80016134828413E-11
      5.59999999999999E-01   1.00000000000000E+00   0.00000000000000E+00   6.71985206442282E-11
      5.49999999999999E-01   1.00000000000000E+00   0.00000000000000E+00   4.60601725008712E-11
      5.39999999999999E-01   1.00000000000000E+00   0.00000000000000E+00   3.15620149901733E-11
      5.29999999999999E-01   1.00000000000000E+00   0.00000000000000E+00   2.16223073980807E-11
      5.19999999999999E-01   1.00000000000000E+00   0.00000000000000E+00   1.48100262840872E-11
      5.09999999999999E-01   1.00000000000000E+00   0.00000000000000E+00   1.01423770863221E-11
      5.00000000000000E-01   1.00000000000000E+00   0.00000000000000E+00   6.94486989475261E-12
      4.90000000000000E-01   1.00000000000000E+00   0.00000000000000E+00   4.75484978721631E-12
      4.80000000000000E-01   1.00000000000000E+00   0.00000000000000E+00   3.25509715714649E-12
      4.70000000000000E-01   1.00000000000000E+00   0.00000000000000E+00   2.22818087439453E-12
      4.60000000000000E-01   1.00000000000000E+00   0.00000000000000E+00   1.52510656227638E-12
      4.50000000000000E-01   1.00000000000000E+00   0.00000000000000E+00   1.04379794086495E-12
      4.40000000000000E-01   1.00000000000000E+00   0.00000000000000E+00   7.14334953799100E-13
      4.30000000000000E-01   1.00000000000000E+00   0.00000000000000E+00   4.88831205113785E-13
      4.20000000000000E-01   1.00000000000000E+00   0.00000000000000E+00   3.34494931081363E-13
      4.10000000000000E-01   1.00000000000000E+00   0.00000000000000E+00   2.28873539174113E-13
      4.00000000000000E-01   1.00000000000000E+00   0.00000000000000E+00   1.56595299610552E-13
      3.90000000000000E-01   1.00000000000000E+00   0.00000000000000E+00   1.07137252935326E-13
      3.80000000000000E-01   1.00000000000000E+00   0.00000000000000E+00   7.32963635146230E-14
      3.70000000000000E-01   1.00000000000000E+00   0.00000000000000E+00   5.01424967858926E-14
      3.60000000000000E-01   1.00000000000000E+00   0.00000000000000E+00   3.43014580894981E-14
      3.50000000000000E-01   1.00000000000000E+00   0.00000000000000E+00   2.34640987829991E-14
      3.40000000000000E-01   1.00000000000000E+00   0.00000000000000E+00   1.60502409651069E-14
      3.30000000000000E-01   1.00000000000000E+00   0.00000000000000E+00   1.09786146127308E-14
      3.20000000000000E-01   1.00000000000000E+00   0.00000000000000E+00   7.50937939124512E-15
      3.10000000000000E-01   1.00000000000000E+00   0.00000000000000E+00   5.13633922954310E-15
      3.00000000000000E-01   1.00000000000000E+00   0.00000000000000E+00   3.51317438916784E-15
      2.90000000000000E-01   1.00000000000000E+00   0.00000000000000E+00   2.40295823378945E-15
      2.80000000000000E-01   1.00000000000000E+00   0.00000000000000E+00   1.64361076122908E-15
      2.70000000000000E-01   1.00000000000000E+00   0.00000000000000E+00   1.12425890052143E-15
      2.60000000000000E-01   1.00000000000000E+00   0.00000000000000E+00   7.69060907282667E-16
      2.50000000000000E-01   1.00000000000000E+00   0.00000000000000E+00   5.26139054953427E-16
      2.40000000000000E-01   1.00000000000000E+00   0.00000000000000E+00   3.60008534321505E-16
      2.30000000000001E-01   1.00000000000000E+00   0.00000000000000E+00   2.46398253573400E-16
      2.20000000000001E-01   1.00000000000000E+00   0.00000000000000E+00   1.68706945839407E-16
      2.10000000000001E-01   1.00000000000000E+00   0.00000000000000E+00   1.15579238953813E-16
      2.00000000000001E-01   1.00000000000000E+00   0.00000000000000E+00   7.92554214366437E-17
      1.90000000000001E-01   1.00000000000000E+00   0.00000000000000E+00   5.44061208181823E-17
      1.80000000000001E-01   1.00000000000000E+00   0.00000000000000E+00   3.74173407846498E-17
      1.70000000000001E-01   1.00000000000000E+00   0.00000000000000E+00   2.57868923821826E-17
      1.60000000000001E-01   1.00000000000000E+00   0.00000000000000E+00   1.78584458599273E-17
      1.50000000000001E-01   1.00000000000000E+00   0.00000000000000E+00   1.24265706291413E-17
      1.40000000000001E-01   1.00000000000000E+00   0.00000000000000E+00   8.71170720644320E-18
      1.30000000000001E-01   1.00000000000000E+00   0.00000000000000E+00   6.17077870641686E-18
      1.20000000000001E-01   1.00000000000000E+00   0.00000000000000E+00   4.42419278254757E-18
      1.10000000000001E-01   1.00000000000000E+00   0.00000000000000E+00   3.24506635479750E-18
      1.00000000000001E-01   1.00000000000000E+00   0.00000000000000E+00   2.42278989202811E-18
      9.00000000000010E-02   1.00000000000000E+00   0.00000000000000E+00   1.90996166172801E-18
      8.00000000000010E-02   1.00000000000000E+00   0.00000000000000E+00   1.64281885471179E-18
      7.00000000000012E-02   1.00000000000000E+00   0.00000000000000E+00   7.70500619563698E-19
      6.00000000000012E-02   1.00000000000000E+00   0.00000000000000E+00   1.08927716622862E-18
      5.00000000000012E-02   1.00000000000000E+00   0.00000000000000E+00   8.88614577785662E-19
      4.00000000000011E-02   1.00000000000000E+00   0.00000000000000E+00   9.02130288487259E-19
      3.00000000000011E-02   1.00000000000000E+00   0.00000000000000E+00   7.61011277330276E-19
      2.00000000000014E-02   1.00000000000000E+00   0.00000000000000E+00   4.17714421435187E-19
      1.00000000000013E-02   1.00000000000000E+00   0.00000000000000E+00   6.91320206844057E-19
      0.00000000000000E+00   1.00000000000000E+00   0.00000000000000E+00   7.13159106709729E-19
}
