DF-ISE text

Info {
  version   = 1.0
  type      = xyplot
  datasets  = [
    "vdiff(g,f)" "vdiff(d,f)" "vdiff(s,f)" "i(t1,f)" ]
  functions = [
    Voltage Voltage Voltage Current ]
}

Data {
      1.20000000000000E+00   5.00000000000000E-02   0.00000000000000E+00   6.54171730616413E-07
      1.19000000000000E+00   5.00000000000000E-02   0.00000000000000E+00   6.44389880563318E-07
      1.18000000000000E+00   5.00000000000000E-02   0.00000000000000E+00   6.34432705118018E-07
      1.17000000000000E+00   5.00000000000000E-02   0.00000000000000E+00   6.24299010235266E-07
      1.16000000000000E+00   5.00000000000000E-02   0.00000000000000E+00   6.13987940874887E-07
      1.15000000000000E+00   5.00000000000000E-02   0.00000000000000E+00   6.03499009715445E-07
      1.14000000000000E+00   5.00000000000000E-02   0.00000000000000E+00   5.92832154570552E-07
      1.13000000000000E+00   5.00000000000000E-02   0.00000000000000E+00   5.81987734097890E-07
      1.12000000000000E+00   5.00000000000000E-02   0.00000000000000E+00   5.70966655761071E-07
      1.11000000000000E+00   5.00000000000000E-02   0.00000000000000E+00   5.59770360095481E-07
      1.10000000000000E+00   5.00000000000000E-02   0.00000000000000E+00   5.48400903380568E-07
      1.09000000000000E+00   5.00000000000000E-02   0.00000000000000E+00   5.36861069580206E-07
      1.08000000000000E+00   5.00000000000000E-02   0.00000000000000E+00   5.25154332226099E-07
      1.07000000000000E+00   5.00000000000000E-02   0.00000000000000E+00   5.13284943603924E-07
      1.06000000000000E+00   5.00000000000000E-02   0.00000000000000E+00   5.01257984516503E-07
      1.05000000000000E+00   5.00000000000000E-02   0.00000000000000E+00   4.89079371865617E-07
      1.04000000000000E+00   5.00000000000000E-02   0.00000000000000E+00   4.76756006294731E-07
      1.03000000000000E+00   5.00000000000000E-02   0.00000000000000E+00   4.64295712221038E-07
      1.02000000000000E+00   5.00000000000000E-02   0.00000000000000E+00   4.51707265561198E-07
      1.01000000000000E+00   5.00000000000000E-02   0.00000000000000E+00   4.39000391116167E-07
      1.00000000000000E+00   5.00000000000000E-02   0.00000000000000E+00   4.26185752677071E-07
      9.90000000000000E-01   5.00000000000000E-02   0.00000000000000E+00   4.13274917554114E-07
      9.80000000000000E-01   5.00000000000000E-02   0.00000000000000E+00   4.00280301552831E-07
      9.70000000000000E-01   5.00000000000000E-02   0.00000000000000E+00   3.87215094925349E-07
      9.60000000000000E-01   5.00000000000000E-02   0.00000000000000E+00   3.74093171006598E-07
      9.50000000000000E-01   5.00000000000000E-02   0.00000000000000E+00   3.60928980390446E-07
      9.40000000000000E-01   5.00000000000000E-02   0.00000000000000E+00   3.47737434351932E-07
      9.30000000000000E-01   5.00000000000000E-02   0.00000000000000E+00   3.34533781627766E-07
      9.20000000000000E-01   5.00000000000000E-02   0.00000000000000E+00   3.21333482626473E-07
      9.10000000000000E-01   5.00000000000000E-02   0.00000000000000E+00   3.08152084838824E-07
      9.00000000000000E-01   5.00000000000000E-02   0.00000000000000E+00   2.95005103002326E-07
      8.90000000000000E-01   5.00000000000000E-02   0.00000000000000E+00   2.81907907822343E-07
      8.80000000000000E-01   5.00000000000000E-02   0.00000000000000E+00   2.68875628016398E-07
      8.70000000000000E-01   5.00000000000000E-02   0.00000000000000E+00   2.55923072092530E-07
      8.60000000000000E-01   5.00000000000000E-02   0.00000000000000E+00   2.43064678225326E-07
      8.50000000000000E-01   5.00000000000000E-02   0.00000000000000E+00   2.30314502234426E-07
      8.40000000000000E-01   5.00000000000000E-02   0.00000000000000E+00   2.17686254340896E-07
      8.30000000000000E-01   5.00000000000000E-02   0.00000000000000E+00   2.05193394626785E-07
      8.20000000000000E-01   5.00000000000000E-02   0.00000000000000E+00   1.92849294891040E-07
      8.10000000000000E-01   5.00000000000000E-02   0.00000000000000E+00   1.80667471246234E-07
      8.00000000000000E-01   5.00000000000000E-02   0.00000000000000E+00   1.68661888012400E-07
      7.90000000000000E-01   5.00000000000000E-02   0.00000000000000E+00   1.56847329937469E-07
      7.80000000000000E-01   5.00000000000000E-02   0.00000000000000E+00   1.45239836446463E-07
      7.70000000000000E-01   5.00000000000000E-02   0.00000000000000E+00   1.33857196970839E-07
      7.60000000000000E-01   5.00000000000000E-02   0.00000000000000E+00   1.22719487045646E-07
      7.50000000000000E-01   5.00000000000000E-02   0.00000000000000E+00   1.11849655008491E-07
      7.40000000000000E-01   5.00000000000000E-02   0.00000000000000E+00   1.01274131784924E-07
      7.30000000000000E-01   5.00000000000000E-02   0.00000000000000E+00   9.10234598820746E-08
      7.20000000000000E-01   5.00000000000000E-02   0.00000000000000E+00   8.11328871813292E-08
      7.10000000000000E-01   5.00000000000000E-02   0.00000000000000E+00   7.16428634128694E-08
      6.99999999999999E-01   5.00000000000000E-02   0.00000000000000E+00   6.25992892168004E-08
      6.89999999999999E-01   5.00000000000000E-02   0.00000000000000E+00   5.40532876337206E-08
      6.79999999999999E-01   5.00000000000000E-02   0.00000000000000E+00   4.60601592926937E-08
      6.69999999999999E-01   5.00000000000000E-02   0.00000000000000E+00   3.86771039207947E-08
      6.59999999999999E-01   5.00000000000000E-02   0.00000000000000E+00   3.19593272670727E-08
      6.49999999999999E-01   5.00000000000000E-02   0.00000000000000E+00   2.59544220770283E-08
      6.39999999999999E-01   5.00000000000000E-02   0.00000000000000E+00   2.06954888409376E-08
      6.29999999999999E-01   5.00000000000000E-02   0.00000000000000E+00   1.61942431493601E-08
      6.19999999999999E-01   5.00000000000000E-02   0.00000000000000E+00   1.24359769702593E-08
      6.09999999999999E-01   5.00000000000000E-02   0.00000000000000E+00   9.37821461922273E-09
      5.99999999999999E-01   5.00000000000000E-02   0.00000000000000E+00   6.95398767326720E-09
      5.89999999999999E-01   5.00000000000000E-02   0.00000000000000E+00   5.07915564061747E-09
      5.79999999999999E-01   5.00000000000000E-02   0.00000000000000E+00   3.66185497205024E-09
      5.69999999999999E-01   5.00000000000000E-02   0.00000000000000E+00   2.61165346121563E-09
      5.59999999999999E-01   5.00000000000000E-02   0.00000000000000E+00   1.84649440551536E-09
      5.49999999999999E-01   5.00000000000000E-02   0.00000000000000E+00   1.29662039258906E-09
      5.39999999999999E-01   5.00000000000000E-02   0.00000000000000E+00   9.05723766352854E-10
      5.29999999999999E-01   5.00000000000000E-02   0.00000000000000E+00   6.30157009916512E-10
      5.19999999999999E-01   5.00000000000000E-02   0.00000000000000E+00   4.37120826759727E-10
      5.09999999999999E-01   5.00000000000000E-02   0.00000000000000E+00   3.02538126657130E-10
      5.00000000000000E-01   5.00000000000000E-02   0.00000000000000E+00   2.09039306847447E-10
      4.90000000000000E-01   5.00000000000000E-02   0.00000000000000E+00   1.44252883867230E-10
      4.80000000000000E-01   5.00000000000000E-02   0.00000000000000E+00   9.94491880568355E-11
      4.70000000000000E-01   5.00000000000000E-02   0.00000000000000E+00   6.85100408814902E-11
      4.60000000000000E-01   5.00000000000000E-02   0.00000000000000E+00   4.71686737464812E-11
      4.50000000000000E-01   5.00000000000000E-02   0.00000000000000E+00   3.24601885282253E-11
      4.40000000000000E-01   5.00000000000000E-02   0.00000000000000E+00   2.23297733364786E-11
      4.30000000000000E-01   5.00000000000000E-02   0.00000000000000E+00   1.53561283093230E-11
      4.20000000000000E-01   5.00000000000000E-02   0.00000000000000E+00   1.05575831323030E-11
      4.10000000000000E-01   5.00000000000000E-02   0.00000000000000E+00   7.25686084973482E-12
      4.00000000000000E-01   5.00000000000000E-02   0.00000000000000E+00   4.98708830572215E-12
      3.90000000000000E-01   5.00000000000000E-02   0.00000000000000E+00   3.42664475503046E-12
      3.80000000000000E-01   5.00000000000000E-02   0.00000000000000E+00   2.35408794242222E-12
      3.70000000000000E-01   5.00000000000000E-02   0.00000000000000E+00   1.61701560922155E-12
      3.60000000000000E-01   5.00000000000000E-02   0.00000000000000E+00   1.11057766033140E-12
      3.50000000000000E-01   5.00000000000000E-02   0.00000000000000E+00   7.62660551712762E-13
      3.40000000000000E-01   5.00000000000000E-02   0.00000000000000E+00   5.23678891133398E-13
      3.30000000000000E-01   5.00000000000000E-02   0.00000000000000E+00   3.59545291133845E-13
      3.20000000000000E-01   5.00000000000000E-02   0.00000000000000E+00   2.46831059281841E-13
      3.10000000000000E-01   5.00000000000000E-02   0.00000000000000E+00   1.69436262504372E-13
      3.00000000000000E-01   5.00000000000000E-02   0.00000000000000E+00   1.16298898440871E-13
      2.90000000000000E-01   5.00000000000000E-02   0.00000000000000E+00   7.98196354150920E-14
      2.80000000000000E-01   5.00000000000000E-02   0.00000000000000E+00   5.47785876697886E-14
      2.70000000000000E-01   5.00000000000000E-02   0.00000000000000E+00   3.75907352659317E-14
      2.60000000000000E-01   5.00000000000000E-02   0.00000000000000E+00   2.57941717430941E-14
      2.50000000000000E-01   5.00000000000000E-02   0.00000000000000E+00   1.76984397157734E-14
      2.40000000000000E-01   5.00000000000000E-02   0.00000000000000E+00   1.21429124276753E-14
      2.30000000000001E-01   5.00000000000000E-02   0.00000000000000E+00   8.33080828414730E-15
      2.20000000000001E-01   5.00000000000000E-02   0.00000000000000E+00   5.71518738301477E-15
      2.10000000000001E-01   5.00000000000000E-02   0.00000000000000E+00   3.92060303440774E-15
      2.00000000000001E-01   5.00000000000000E-02   0.00000000000000E+00   2.68941963292294E-15
      1.90000000000001E-01   5.00000000000000E-02   0.00000000000000E+00   1.84479994128962E-15
      1.80000000000001E-01   5.00000000000000E-02   0.00000000000000E+00   1.26539981781658E-15
      1.70000000000001E-01   5.00000000000000E-02   0.00000000000000E+00   8.67955620712991E-16
      1.60000000000001E-01   5.00000000000000E-02   0.00000000000000E+00   5.95337344399939E-16
      1.50000000000001E-01   5.00000000000000E-02   0.00000000000000E+00   4.08348379777226E-16
      1.40000000000001E-01   5.00000000000000E-02   0.00000000000000E+00   2.80097513762967E-16
      1.30000000000001E-01   5.00000000000000E-02   0.00000000000000E+00   1.92136679720092E-16
      1.20000000000001E-01   5.00000000000000E-02   0.00000000000000E+00   1.31810659272866E-16
      1.10000000000001E-01   5.00000000000000E-02   0.00000000000000E+00   9.04385205013905E-17
      1.00000000000001E-01   5.00000000000000E-02   0.00000000000000E+00   6.20773492266890E-17
      9.00000000000010E-02   5.00000000000000E-02   0.00000000000000E+00   4.26084010645879E-17
      8.00000000000010E-02   5.00000000000000E-02   0.00000000000000E+00   2.92648497576804E-17
      7.00000000000012E-02   5.00000000000000E-02   0.00000000000000E+00   2.01035135892029E-17
      6.00000000000012E-02   5.00000000000000E-02   0.00000000000000E+00   1.38394782154511E-17
      5.00000000000012E-02   5.00000000000000E-02   0.00000000000000E+00   9.53575377939616E-18
      4.00000000000011E-02   5.00000000000000E-02   0.00000000000000E+00   6.58365511802283E-18
      3.00000000000011E-02   5.00000000000000E-02   0.00000000000000E+00   4.55900011145858E-18
      2.00000000000014E-02   5.00000000000000E-02   0.00000000000000E+00   3.16956818583450E-18
      1.00000000000013E-02   5.00000000000000E-02   0.00000000000000E+00   2.21592377344720E-18
      0.00000000000000E+00   5.00000000000000E-02   0.00000000000000E+00   1.56077954775900E-18
}
