DF-ISE text

Info {
  version   = 1.0
  type      = xyplot
  datasets  = [
    "vdiff(g,f)" "vdiff(d,f)" "vdiff(s,f)" "i(t1,f)" ]
  functions = [
    Voltage Voltage Voltage Current ]
}

Data {
      1.20000000000000E+00   5.00000000000000E-02   0.00000000000000E+00   5.53419437289049E-07
      1.19000000000000E+00   5.00000000000000E-02   0.00000000000000E+00   5.44641126629170E-07
      1.18000000000000E+00   5.00000000000000E-02   0.00000000000000E+00   5.35685689150406E-07
      1.17000000000000E+00   5.00000000000000E-02   0.00000000000000E+00   5.26551068764658E-07
      1.16000000000000E+00   5.00000000000000E-02   0.00000000000000E+00   5.17235502177287E-07
      1.15000000000000E+00   5.00000000000000E-02   0.00000000000000E+00   5.07737540175688E-07
      1.14000000000000E+00   5.00000000000000E-02   0.00000000000000E+00   4.98056136417457E-07
      1.13000000000000E+00   5.00000000000000E-02   0.00000000000000E+00   4.88190650844989E-07
      1.12000000000000E+00   5.00000000000000E-02   0.00000000000000E+00   4.78140885639535E-07
      1.11000000000000E+00   5.00000000000000E-02   0.00000000000000E+00   4.67907220366385E-07
      1.10000000000000E+00   5.00000000000000E-02   0.00000000000000E+00   4.57490629160288E-07
      1.09000000000000E+00   5.00000000000000E-02   0.00000000000000E+00   4.46892698879757E-07
      1.08000000000000E+00   5.00000000000000E-02   0.00000000000000E+00   4.36115746065668E-07
      1.07000000000000E+00   5.00000000000000E-02   0.00000000000000E+00   4.25162855598243E-07
      1.06000000000000E+00   5.00000000000000E-02   0.00000000000000E+00   4.14037915317731E-07
      1.05000000000000E+00   5.00000000000000E-02   0.00000000000000E+00   4.02745800421709E-07
      1.04000000000000E+00   5.00000000000000E-02   0.00000000000000E+00   3.91292312309429E-07
      1.03000000000000E+00   5.00000000000000E-02   0.00000000000000E+00   3.79684286373124E-07
      1.02000000000000E+00   5.00000000000000E-02   0.00000000000000E+00   3.67929607778624E-07
      1.01000000000000E+00   5.00000000000000E-02   0.00000000000000E+00   3.56037259233443E-07
      1.00000000000000E+00   5.00000000000000E-02   0.00000000000000E+00   3.44017342522370E-07
      9.90000000000000E-01   5.00000000000000E-02   0.00000000000000E+00   3.31881085189946E-07
      9.80000000000000E-01   5.00000000000000E-02   0.00000000000000E+00   3.19640831421319E-07
      9.70000000000000E-01   5.00000000000000E-02   0.00000000000000E+00   3.07310016728963E-07
      9.60000000000000E-01   5.00000000000000E-02   0.00000000000000E+00   2.94903126697669E-07
      9.50000000000000E-01   5.00000000000000E-02   0.00000000000000E+00   2.82435640651885E-07
      9.40000000000000E-01   5.00000000000000E-02   0.00000000000000E+00   2.69923961785867E-07
      9.30000000000000E-01   5.00000000000000E-02   0.00000000000000E+00   2.57385336312719E-07
      9.20000000000000E-01   5.00000000000000E-02   0.00000000000000E+00   2.44837765941624E-07
      9.10000000000000E-01   5.00000000000000E-02   0.00000000000000E+00   2.32299920854741E-07
      9.00000000000000E-01   5.00000000000000E-02   0.00000000000000E+00   2.19791064438856E-07
      8.90000000000000E-01   5.00000000000000E-02   0.00000000000000E+00   2.07331005954998E-07
      8.80000000000000E-01   5.00000000000000E-02   0.00000000000000E+00   1.94940102134122E-07
      8.70000000000000E-01   5.00000000000000E-02   0.00000000000000E+00   1.82639331947425E-07
      8.60000000000000E-01   5.00000000000000E-02   0.00000000000000E+00   1.70450469034218E-07
      8.50000000000000E-01   5.00000000000000E-02   0.00000000000000E+00   1.58396372460039E-07
      8.40000000000000E-01   5.00000000000000E-02   0.00000000000000E+00   1.46501408472792E-07
      8.30000000000000E-01   5.00000000000000E-02   0.00000000000000E+00   1.34792004479412E-07
      8.20000000000000E-01   5.00000000000000E-02   0.00000000000000E+00   1.23297322782827E-07
      8.10000000000000E-01   5.00000000000000E-02   0.00000000000000E+00   1.12050026442332E-07
      8.00000000000000E-01   5.00000000000000E-02   0.00000000000000E+00   1.01087090664902E-07
      7.90000000000000E-01   5.00000000000000E-02   0.00000000000000E+00   9.04506025262041E-08
      7.80000000000000E-01   5.00000000000000E-02   0.00000000000000E+00   8.01884276519029E-08
      7.70000000000000E-01   5.00000000000000E-02   0.00000000000000E+00   7.03546117983876E-08
      7.60000000000000E-01   5.00000000000000E-02   0.00000000000000E+00   6.10092665315599E-08
      7.50000000000000E-01   5.00000000000000E-02   0.00000000000000E+00   5.22176217958883E-08
      7.40000000000000E-01   5.00000000000000E-02   0.00000000000000E+00   4.40478101214998E-08
      7.30000000000000E-01   5.00000000000000E-02   0.00000000000000E+00   3.65669545715798E-08
      7.20000000000000E-01   5.00000000000000E-02   0.00000000000000E+00   2.98353399927356E-08
      7.10000000000000E-01   5.00000000000000E-02   0.00000000000000E+00   2.38989835283759E-08
      6.99999999999999E-01   5.00000000000000E-02   0.00000000000000E+00   1.87817460010568E-08
      6.89999999999999E-01   5.00000000000000E-02   0.00000000000000E+00   1.44789157715691E-08
      6.79999999999999E-01   5.00000000000000E-02   0.00000000000000E+00   1.09544115619013E-08
      6.69999999999999E-01   5.00000000000000E-02   0.00000000000000E+00   8.14300271736907E-09
      6.59999999999999E-01   5.00000000000000E-02   0.00000000000000E+00   5.95739936504290E-09
      6.49999999999999E-01   5.00000000000000E-02   0.00000000000000E+00   4.29843343140968E-09
      6.39999999999999E-01   5.00000000000000E-02   0.00000000000000E+00   3.06566751024897E-09
      6.29999999999999E-01   5.00000000000000E-02   0.00000000000000E+00   2.16602344328722E-09
      6.19999999999999E-01   5.00000000000000E-02   0.00000000000000E+00   1.51913753460112E-09
      6.09999999999999E-01   5.00000000000000E-02   0.00000000000000E+00   1.05942459589605E-09
      5.99999999999999E-01   5.00000000000000E-02   0.00000000000000E+00   7.35672309857653E-10
      5.89999999999999E-01   5.00000000000000E-02   0.00000000000000E+00   5.09225722250740E-10
      5.79999999999999E-01   5.00000000000000E-02   0.00000000000000E+00   3.51645189124869E-10
      5.69999999999999E-01   5.00000000000000E-02   0.00000000000000E+00   2.42400208222868E-10
      5.59999999999999E-01   5.00000000000000E-02   0.00000000000000E+00   1.66874591046402E-10
      5.49999999999999E-01   5.00000000000000E-02   0.00000000000000E+00   1.14767340702560E-10
      5.39999999999999E-01   5.00000000000000E-02   0.00000000000000E+00   7.88715265403827E-11
      5.29999999999999E-01   5.00000000000000E-02   0.00000000000000E+00   5.41714669023454E-11
      5.19999999999999E-01   5.00000000000000E-02   0.00000000000000E+00   3.71897739649067E-11
      5.09999999999999E-01   5.00000000000000E-02   0.00000000000000E+00   2.55222289833660E-11
      5.00000000000000E-01   5.00000000000000E-02   0.00000000000000E+00   1.75099468609676E-11
      4.90000000000000E-01   5.00000000000000E-02   0.00000000000000E+00   1.20100210457062E-11
      4.80000000000000E-01   5.00000000000000E-02   0.00000000000000E+00   8.23591006374985E-12
      4.70000000000000E-01   5.00000000000000E-02   0.00000000000000E+00   5.64677676058660E-12
      4.60000000000000E-01   5.00000000000000E-02   0.00000000000000E+00   3.87097491203396E-12
      4.50000000000000E-01   5.00000000000000E-02   0.00000000000000E+00   2.65325077796056E-12
      4.40000000000000E-01   5.00000000000000E-02   0.00000000000000E+00   1.81836246111511E-12
      4.30000000000000E-01   5.00000000000000E-02   0.00000000000000E+00   1.24603930167025E-12
      4.20000000000000E-01   5.00000000000000E-02   0.00000000000000E+00   8.53760878238536E-13
      4.10000000000000E-01   5.00000000000000E-02   0.00000000000000E+00   5.84921348215509E-13
      4.00000000000000E-01   5.00000000000000E-02   0.00000000000000E+00   4.00699155994584E-13
      3.90000000000000E-01   5.00000000000000E-02   0.00000000000000E+00   2.74474358709495E-13
      3.80000000000000E-01   5.00000000000000E-02   0.00000000000000E+00   1.87996563919243E-13
      3.70000000000000E-01   5.00000000000000E-02   0.00000000000000E+00   1.28755264037426E-13
      3.60000000000000E-01   5.00000000000000E-02   0.00000000000000E+00   8.81757224406375E-14
      3.50000000000000E-01   5.00000000000000E-02   0.00000000000000E+00   6.03814982538992E-14
      3.40000000000000E-01   5.00000000000000E-02   0.00000000000000E+00   4.13457958977745E-14
      3.30000000000000E-01   5.00000000000000E-02   0.00000000000000E+00   2.83095637380808E-14
      3.20000000000000E-01   5.00000000000000E-02   0.00000000000000E+00   1.93825567378874E-14
      3.10000000000000E-01   5.00000000000000E-02   0.00000000000000E+00   1.32698723838827E-14
      3.00000000000000E-01   5.00000000000000E-02   0.00000000000000E+00   9.08451993635306E-15
      2.90000000000000E-01   5.00000000000000E-02   0.00000000000000E+00   6.21897149657533E-15
      2.80000000000000E-01   5.00000000000000E-02   0.00000000000000E+00   4.25714377639992E-15
      2.70000000000000E-01   5.00000000000000E-02   0.00000000000000E+00   2.91409072905360E-15
      2.60000000000000E-01   5.00000000000000E-02   0.00000000000000E+00   1.99468666408942E-15
      2.50000000000000E-01   5.00000000000000E-02   0.00000000000000E+00   1.36532219107162E-15
      2.40000000000000E-01   5.00000000000000E-02   0.00000000000000E+00   9.34516046331022E-16
      2.30000000000001E-01   5.00000000000000E-02   0.00000000000000E+00   6.39635289896717E-16
      2.20000000000001E-01   5.00000000000000E-02   0.00000000000000E+00   4.37800181602059E-16
      2.10000000000001E-01   5.00000000000000E-02   0.00000000000000E+00   2.99655671349649E-16
      2.00000000000001E-01   5.00000000000000E-02   0.00000000000000E+00   2.05106386802179E-16
      1.90000000000001E-01   5.00000000000000E-02   0.00000000000000E+00   1.40396338086992E-16
      1.80000000000001E-01   5.00000000000000E-02   0.00000000000000E+00   9.61094393311651E-17
      1.70000000000001E-01   5.00000000000000E-02   0.00000000000000E+00   6.58005920299636E-17
      1.60000000000001E-01   5.00000000000000E-02   0.00000000000000E+00   4.50598575754932E-17
      1.50000000000001E-01   5.00000000000000E-02   0.00000000000000E+00   3.08937526732886E-17
      1.40000000000001E-01   5.00000000000000E-02   0.00000000000000E+00   2.11478834740017E-17
      1.30000000000001E-01   5.00000000000000E-02   0.00000000000000E+00   1.45001748999921E-17
      1.20000000000001E-01   5.00000000000000E-02   0.00000000000000E+00   9.94859294667705E-18
      1.10000000000001E-01   5.00000000000000E-02   0.00000000000000E+00   6.83400327658530E-18
      1.00000000000001E-01   5.00000000000000E-02   0.00000000000000E+00   4.70124117836896E-18
      9.00000000000010E-02   5.00000000000000E-02   0.00000000000000E+00   3.22939865947216E-18
      8.00000000000010E-02   5.00000000000000E-02   0.00000000000000E+00   2.24429381225164E-18
      7.00000000000012E-02   5.00000000000000E-02   0.00000000000000E+00   1.56059299838498E-18
      6.00000000000012E-02   5.00000000000000E-02   0.00000000000000E+00   1.09259658476485E-18
      5.00000000000012E-02   5.00000000000000E-02   0.00000000000000E+00   7.59439362080055E-19
      4.00000000000011E-02   5.00000000000000E-02   0.00000000000000E+00   5.52204320072552E-19
      3.00000000000011E-02   5.00000000000000E-02   0.00000000000000E+00   4.01265323088344E-19
      2.00000000000014E-02   5.00000000000000E-02   0.00000000000000E+00   3.03837902622128E-19
      1.00000000000013E-02   5.00000000000000E-02   0.00000000000000E+00   5.02476623573609E-19
      0.00000000000000E+00   5.00000000000000E-02   0.00000000000000E+00   1.75092548390946E-19
}
