DF-ISE text

Info {
  version   = 1.0
  type      = xyplot
  datasets  = [
    "vdiff(g,f)" "vdiff(d,f)" "vdiff(s,f)" "i(t1,f)" ]
  functions = [
    Voltage Voltage Voltage Current ]
}

Data {
      1.20000000000000E+00   1.00000000000000E+00   0.00000000000000E+00   4.18003595559636E-06
      1.19000000000000E+00   1.00000000000000E+00   0.00000000000000E+00   4.06093538197768E-06
      1.18000000000000E+00   1.00000000000000E+00   0.00000000000000E+00   3.94276426001807E-06
      1.17000000000000E+00   1.00000000000000E+00   0.00000000000000E+00   3.82557734251617E-06
      1.16000000000000E+00   1.00000000000000E+00   0.00000000000000E+00   3.70942902260923E-06
      1.15000000000000E+00   1.00000000000000E+00   0.00000000000000E+00   3.59437327877369E-06
      1.14000000000000E+00   1.00000000000000E+00   0.00000000000000E+00   3.48046361644706E-06
      1.13000000000000E+00   1.00000000000000E+00   0.00000000000000E+00   3.36775300624691E-06
      1.12000000000000E+00   1.00000000000000E+00   0.00000000000000E+00   3.25629381876488E-06
      1.11000000000000E+00   1.00000000000000E+00   0.00000000000000E+00   3.14613775592152E-06
      1.10000000000000E+00   1.00000000000000E+00   0.00000000000000E+00   3.03733577883826E-06
      1.09000000000000E+00   1.00000000000000E+00   0.00000000000000E+00   2.92993803206941E-06
      1.08000000000000E+00   1.00000000000000E+00   0.00000000000000E+00   2.82399376366370E-06
      1.07000000000000E+00   1.00000000000000E+00   0.00000000000000E+00   2.71955123989233E-06
      1.06000000000000E+00   1.00000000000000E+00   0.00000000000000E+00   2.61665765598065E-06
      1.05000000000000E+00   1.00000000000000E+00   0.00000000000000E+00   2.51535895417616E-06
      1.04000000000000E+00   1.00000000000000E+00   0.00000000000000E+00   2.41569993006294E-06
      1.03000000000000E+00   1.00000000000000E+00   0.00000000000000E+00   2.31772446250039E-06
      1.02000000000000E+00   1.00000000000000E+00   0.00000000000000E+00   2.22147470758837E-06
      1.01000000000000E+00   1.00000000000000E+00   0.00000000000000E+00   2.12699128596931E-06
      1.00000000000000E+00   1.00000000000000E+00   0.00000000000000E+00   2.03431296840791E-06
      9.90000000000000E-01   1.00000000000000E+00   0.00000000000000E+00   1.94347710728553E-06
      9.80000000000000E-01   1.00000000000000E+00   0.00000000000000E+00   1.85451929929586E-06
      9.70000000000000E-01   1.00000000000000E+00   0.00000000000000E+00   1.76747420725147E-06
      9.60000000000000E-01   1.00000000000000E+00   0.00000000000000E+00   1.68237395636079E-06
      9.50000000000000E-01   1.00000000000000E+00   0.00000000000000E+00   1.59924867656926E-06
      9.40000000000000E-01   1.00000000000000E+00   0.00000000000000E+00   1.51812627302460E-06
      9.30000000000000E-01   1.00000000000000E+00   0.00000000000000E+00   1.43903322303664E-06
      9.20000000000000E-01   1.00000000000000E+00   0.00000000000000E+00   1.36199361721307E-06
      9.10000000000000E-01   1.00000000000000E+00   0.00000000000000E+00   1.28703002188456E-06
      9.00000000000000E-01   1.00000000000000E+00   0.00000000000000E+00   1.21416297259233E-06
      8.90000000000000E-01   1.00000000000000E+00   0.00000000000000E+00   1.14341086926817E-06
      8.80000000000000E-01   1.00000000000000E+00   0.00000000000000E+00   1.07479020360986E-06
      8.70000000000000E-01   1.00000000000000E+00   0.00000000000000E+00   1.00831562188236E-06
      8.60000000000000E-01   1.00000000000000E+00   0.00000000000000E+00   9.43999993329096E-07
      8.50000000000000E-01   1.00000000000000E+00   0.00000000000000E+00   8.81854486488114E-07
      8.40000000000000E-01   1.00000000000000E+00   0.00000000000000E+00   8.21888634794768E-07
      8.30000000000000E-01   1.00000000000000E+00   0.00000000000000E+00   7.64110454023728E-07
      8.20000000000000E-01   1.00000000000000E+00   0.00000000000000E+00   7.08526609624862E-07
      8.10000000000000E-01   1.00000000000000E+00   0.00000000000000E+00   6.55142343688154E-07
      8.00000000000000E-01   1.00000000000000E+00   0.00000000000000E+00   6.03961649535105E-07
      7.90000000000000E-01   1.00000000000000E+00   0.00000000000000E+00   5.54987420672724E-07
      7.80000000000000E-01   1.00000000000000E+00   0.00000000000000E+00   5.08221362882660E-07
      7.70000000000000E-01   1.00000000000000E+00   0.00000000000000E+00   4.63664178477934E-07
      7.60000000000000E-01   1.00000000000000E+00   0.00000000000000E+00   4.21315359925780E-07
      7.50000000000000E-01   1.00000000000000E+00   0.00000000000000E+00   3.81173200827646E-07
      7.40000000000000E-01   1.00000000000000E+00   0.00000000000000E+00   3.43234670776727E-07
      7.30000000000000E-01   1.00000000000000E+00   0.00000000000000E+00   3.07495213047457E-07
      7.20000000000000E-01   1.00000000000000E+00   0.00000000000000E+00   2.73948455733182E-07
      7.10000000000000E-01   1.00000000000000E+00   0.00000000000000E+00   2.42585823602874E-07
      6.99999999999999E-01   1.00000000000000E+00   0.00000000000000E+00   2.13396035729349E-07
      6.89999999999999E-01   1.00000000000000E+00   0.00000000000000E+00   1.86364471272401E-07
      6.79999999999999E-01   1.00000000000000E+00   0.00000000000000E+00   1.61472382643613E-07
      6.69999999999999E-01   1.00000000000000E+00   0.00000000000000E+00   1.38695931393880E-07
      6.59999999999999E-01   1.00000000000000E+00   0.00000000000000E+00   1.18005024437043E-07
      6.49999999999999E-01   1.00000000000000E+00   0.00000000000000E+00   9.93619224978476E-08
      6.39999999999999E-01   1.00000000000000E+00   0.00000000000000E+00   8.27196075713173E-08
      6.29999999999999E-01   1.00000000000000E+00   0.00000000000000E+00   6.80199179267276E-08
      6.19999999999999E-01   1.00000000000000E+00   0.00000000000000E+00   5.51915180044707E-08
      6.09999999999999E-01   1.00000000000000E+00   0.00000000000000E+00   4.41478487386806E-08
      5.99999999999999E-01   1.00000000000000E+00   0.00000000000000E+00   3.47853311652080E-08
      5.89999999999999E-01   1.00000000000000E+00   0.00000000000000E+00   2.69822680315762E-08
      5.79999999999999E-01   1.00000000000000E+00   0.00000000000000E+00   2.05990455464959E-08
      5.69999999999999E-01   1.00000000000000E+00   0.00000000000000E+00   1.54802889052397E-08
      5.59999999999999E-01   1.00000000000000E+00   0.00000000000000E+00   1.14594232883242E-08
      5.49999999999999E-01   1.00000000000000E+00   0.00000000000000E+00   8.36553971210866E-09
      5.39999999999999E-01   1.00000000000000E+00   0.00000000000000E+00   6.03166856970556E-09
      5.29999999999999E-01   1.00000000000000E+00   0.00000000000000E+00   4.30290104282240E-09
      5.19999999999999E-01   1.00000000000000E+00   0.00000000000000E+00   3.04271161615565E-09
      5.09999999999999E-01   1.00000000000000E+00   0.00000000000000E+00   2.13643875619253E-09
      5.00000000000000E-01   1.00000000000000E+00   0.00000000000000E+00   1.49182646834341E-09
      4.90000000000000E-01   1.00000000000000E+00   0.00000000000000E+00   1.03729856562441E-09
      4.80000000000000E-01   1.00000000000000E+00   0.00000000000000E+00   7.18944914449113E-10
      4.70000000000000E-01   1.00000000000000E+00   0.00000000000000E+00   4.97098345194648E-10
      4.60000000000000E-01   1.00000000000000E+00   0.00000000000000E+00   3.43090064266811E-10
      4.50000000000000E-01   1.00000000000000E+00   0.00000000000000E+00   2.36477669989125E-10
      4.40000000000000E-01   1.00000000000000E+00   0.00000000000000E+00   1.62829694868480E-10
      4.30000000000000E-01   1.00000000000000E+00   0.00000000000000E+00   1.12032747886726E-10
      4.20000000000000E-01   1.00000000000000E+00   0.00000000000000E+00   7.70374684444795E-11
      4.10000000000000E-01   1.00000000000000E+00   0.00000000000000E+00   5.29494458034327E-11
      4.00000000000000E-01   1.00000000000000E+00   0.00000000000000E+00   3.63801767618178E-11
      3.90000000000000E-01   1.00000000000000E+00   0.00000000000000E+00   2.49886476426515E-11
      3.80000000000000E-01   1.00000000000000E+00   0.00000000000000E+00   1.71600259920355E-11
      3.70000000000000E-01   1.00000000000000E+00   0.00000000000000E+00   1.17816830464430E-11
      3.60000000000000E-01   1.00000000000000E+00   0.00000000000000E+00   8.08767647304702E-12
      3.50000000000000E-01   1.00000000000000E+00   0.00000000000000E+00   5.55107486100232E-12
      3.40000000000000E-01   1.00000000000000E+00   0.00000000000000E+00   3.80956097135486E-12
      3.30000000000000E-01   1.00000000000000E+00   0.00000000000000E+00   2.61410694563607E-12
      3.20000000000000E-01   1.00000000000000E+00   0.00000000000000E+00   1.79360668341078E-12
      3.10000000000000E-01   1.00000000000000E+00   0.00000000000000E+00   1.23052516052033E-12
      3.00000000000000E-01   1.00000000000000E+00   0.00000000000000E+00   8.44143980040386E-13
      2.90000000000000E-01   1.00000000000000E+00   0.00000000000000E+00   5.79039419351238E-13
      2.80000000000000E-01   1.00000000000000E+00   0.00000000000000E+00   3.97162067983566E-13
      2.70000000000000E-01   1.00000000000000E+00   0.00000000000000E+00   2.72394045971485E-13
      2.60000000000000E-01   1.00000000000000E+00   0.00000000000000E+00   1.86809801793746E-13
      2.50000000000000E-01   1.00000000000000E+00   0.00000000000000E+00   1.28107858040062E-13
      2.40000000000000E-01   1.00000000000000E+00   0.00000000000000E+00   8.78471609609591E-14
      2.30000000000001E-01   1.00000000000000E+00   0.00000000000000E+00   6.02361659756464E-14
      2.20000000000001E-01   1.00000000000000E+00   0.00000000000000E+00   4.13015529245168E-14
      2.10000000000001E-01   1.00000000000000E+00   0.00000000000000E+00   2.83176299820706E-14
      2.00000000000001E-01   1.00000000000000E+00   0.00000000000000E+00   1.94147209647322E-14
      1.90000000000001E-01   1.00000000000000E+00   0.00000000000000E+00   1.33104224230863E-14
      1.80000000000001E-01   1.00000000000000E+00   0.00000000000000E+00   9.12519857658711E-15
      1.70000000000001E-01   1.00000000000000E+00   0.00000000000000E+00   6.25585940942844E-15
      1.60000000000001E-01   1.00000000000000E+00   0.00000000000000E+00   4.28876046368722E-15
      1.50000000000001E-01   1.00000000000000E+00   0.00000000000000E+00   2.94025820124233E-15
      1.40000000000001E-01   1.00000000000000E+00   0.00000000000000E+00   2.01586515302625E-15
      1.30000000000001E-01   1.00000000000000E+00   0.00000000000000E+00   1.38223352043948E-15
      1.20000000000001E-01   1.00000000000000E+00   0.00000000000000E+00   9.47938992031554E-16
      1.10000000000001E-01   1.00000000000000E+00   0.00000000000000E+00   6.50301774845616E-16
      1.00000000000001E-01   1.00000000000000E+00   0.00000000000000E+00   4.46344184705874E-16
      9.00000000000010E-02   1.00000000000000E+00   0.00000000000000E+00   3.06620604334863E-16
      8.00000000000010E-02   1.00000000000000E+00   0.00000000000000E+00   2.10911850065484E-16
      7.00000000000012E-02   1.00000000000000E+00   0.00000000000000E+00   1.45361166595317E-16
      6.00000000000012E-02   1.00000000000000E+00   0.00000000000000E+00   1.00447935095213E-16
      5.00000000000012E-02   1.00000000000000E+00   0.00000000000000E+00   6.96971882615713E-17
      4.00000000000011E-02   1.00000000000000E+00   0.00000000000000E+00   4.85149783270431E-17
      3.00000000000011E-02   1.00000000000000E+00   0.00000000000000E+00   3.41233769965373E-17
      2.00000000000014E-02   1.00000000000000E+00   0.00000000000000E+00   2.41834368455771E-17
      1.00000000000013E-02   1.00000000000000E+00   0.00000000000000E+00   1.74733013238705E-17
      0.00000000000000E+00   1.00000000000000E+00   0.00000000000000E+00   1.25701248782629E-17
}
