DF-ISE text

Info {
  version   = 1.0
  type      = xyplot
  datasets  = [
    "vdiff(g,f)" "vdiff(d,f)" "vdiff(s,f)" "i(t1,f)" ]
  functions = [
    Voltage Voltage Voltage Current ]
}

Data {
      1.20000000000000E+00   1.00000000000000E+00   0.00000000000000E+00   4.69937050619990E-06
      1.19000000000000E+00   1.00000000000000E+00   0.00000000000000E+00   4.57367476239625E-06
      1.18000000000000E+00   1.00000000000000E+00   0.00000000000000E+00   4.44890378044202E-06
      1.17000000000000E+00   1.00000000000000E+00   0.00000000000000E+00   4.32510962133437E-06
      1.16000000000000E+00   1.00000000000000E+00   0.00000000000000E+00   4.20234390594100E-06
      1.15000000000000E+00   1.00000000000000E+00   0.00000000000000E+00   4.08065777047972E-06
      1.14000000000000E+00   1.00000000000000E+00   0.00000000000000E+00   3.96010181915098E-06
      1.13000000000000E+00   1.00000000000000E+00   0.00000000000000E+00   3.84072607392086E-06
      1.12000000000000E+00   1.00000000000000E+00   0.00000000000000E+00   3.72257992146135E-06
      1.11000000000000E+00   1.00000000000000E+00   0.00000000000000E+00   3.60571205725889E-06
      1.10000000000000E+00   1.00000000000000E+00   0.00000000000000E+00   3.49017042690561E-06
      1.09000000000000E+00   1.00000000000000E+00   0.00000000000000E+00   3.37600216458319E-06
      1.08000000000000E+00   1.00000000000000E+00   0.00000000000000E+00   3.26325352869358E-06
      1.07000000000000E+00   1.00000000000000E+00   0.00000000000000E+00   3.15196983439564E-06
      1.06000000000000E+00   1.00000000000000E+00   0.00000000000000E+00   3.04219538242448E-06
      1.05000000000000E+00   1.00000000000000E+00   0.00000000000000E+00   2.93397338411336E-06
      1.04000000000000E+00   1.00000000000000E+00   0.00000000000000E+00   2.82734588978428E-06
      1.03000000000000E+00   1.00000000000000E+00   0.00000000000000E+00   2.72235348905233E-06
      1.02000000000000E+00   1.00000000000000E+00   0.00000000000000E+00   2.61903605782910E-06
      1.01000000000000E+00   1.00000000000000E+00   0.00000000000000E+00   2.51743192371174E-06
      1.00000000000000E+00   1.00000000000000E+00   0.00000000000000E+00   2.41757785849199E-06
      9.90000000000000E-01   1.00000000000000E+00   0.00000000000000E+00   2.31950909734505E-06
      9.80000000000000E-01   1.00000000000000E+00   0.00000000000000E+00   2.22325901770728E-06
      9.70000000000000E-01   1.00000000000000E+00   0.00000000000000E+00   2.12885974619869E-06
      9.60000000000000E-01   1.00000000000000E+00   0.00000000000000E+00   2.03634155331045E-06
      9.50000000000000E-01   1.00000000000000E+00   0.00000000000000E+00   1.94573390075032E-06
      9.40000000000000E-01   1.00000000000000E+00   0.00000000000000E+00   1.85706385004647E-06
      9.30000000000000E-01   1.00000000000000E+00   0.00000000000000E+00   1.77035662847467E-06
      9.20000000000000E-01   1.00000000000000E+00   0.00000000000000E+00   1.68563556662504E-06
      9.10000000000000E-01   1.00000000000000E+00   0.00000000000000E+00   1.60292225074081E-06
      9.00000000000000E-01   1.00000000000000E+00   0.00000000000000E+00   1.52223685345014E-06
      8.90000000000000E-01   1.00000000000000E+00   0.00000000000000E+00   1.44359739903302E-06
      8.80000000000000E-01   1.00000000000000E+00   0.00000000000000E+00   1.36702083576836E-06
      8.70000000000000E-01   1.00000000000000E+00   0.00000000000000E+00   1.29252210697468E-06
      8.60000000000000E-01   1.00000000000000E+00   0.00000000000000E+00   1.22011452335408E-06
      8.50000000000000E-01   1.00000000000000E+00   0.00000000000000E+00   1.14980987016973E-06
      8.40000000000000E-01   1.00000000000000E+00   0.00000000000000E+00   1.08161849100146E-06
      8.30000000000000E-01   1.00000000000000E+00   0.00000000000000E+00   1.01554937729572E-06
      8.20000000000000E-01   1.00000000000000E+00   0.00000000000000E+00   9.51610264283547E-07
      8.10000000000000E-01   1.00000000000000E+00   0.00000000000000E+00   8.89807732044211E-07
      8.00000000000000E-01   1.00000000000000E+00   0.00000000000000E+00   8.30147263828774E-07
      7.90000000000000E-01   1.00000000000000E+00   0.00000000000000E+00   7.72633518918698E-07
      7.80000000000000E-01   1.00000000000000E+00   0.00000000000000E+00   7.17270253550826E-07
      7.70000000000000E-01   1.00000000000000E+00   0.00000000000000E+00   6.64060415624952E-07
      7.60000000000000E-01   1.00000000000000E+00   0.00000000000000E+00   6.13006372036382E-07
      7.50000000000000E-01   1.00000000000000E+00   0.00000000000000E+00   5.64109808789551E-07
      7.40000000000000E-01   1.00000000000000E+00   0.00000000000000E+00   5.17371865443015E-07
      7.30000000000000E-01   1.00000000000000E+00   0.00000000000000E+00   4.72793073990974E-07
      7.20000000000000E-01   1.00000000000000E+00   0.00000000000000E+00   4.30373245932692E-07
      7.10000000000000E-01   1.00000000000000E+00   0.00000000000000E+00   3.90111408353490E-07
      6.99999999999999E-01   1.00000000000000E+00   0.00000000000000E+00   3.52005638667816E-07
      6.89999999999999E-01   1.00000000000000E+00   0.00000000000000E+00   3.16052830645274E-07
      6.79999999999999E-01   1.00000000000000E+00   0.00000000000000E+00   2.82248383918108E-07
      6.69999999999999E-01   1.00000000000000E+00   0.00000000000000E+00   2.50585807190820E-07
      6.59999999999999E-01   1.00000000000000E+00   0.00000000000000E+00   2.21056222933776E-07
      6.49999999999999E-01   1.00000000000000E+00   0.00000000000000E+00   1.93647758207013E-07
      6.39999999999999E-01   1.00000000000000E+00   0.00000000000000E+00   1.68344802421419E-07
      6.29999999999999E-01   1.00000000000000E+00   0.00000000000000E+00   1.45127108388710E-07
      6.19999999999999E-01   1.00000000000000E+00   0.00000000000000E+00   1.23968711170786E-07
      6.09999999999999E-01   1.00000000000000E+00   0.00000000000000E+00   1.04836636932446E-07
      5.99999999999999E-01   1.00000000000000E+00   0.00000000000000E+00   8.76893791665417E-08
      5.89999999999999E-01   1.00000000000000E+00   0.00000000000000E+00   7.24751401713596E-08
      5.79999999999999E-01   1.00000000000000E+00   0.00000000000000E+00   5.91298714758024E-08
      5.69999999999999E-01   1.00000000000000E+00   0.00000000000000E+00   4.75752286323660E-08
      5.59999999999999E-01   1.00000000000000E+00   0.00000000000000E+00   3.77166511154478E-08
      5.49999999999999E-01   1.00000000000000E+00   0.00000000000000E+00   2.94419407492478E-08
      5.39999999999999E-01   1.00000000000000E+00   0.00000000000000E+00   2.26208778482201E-08
      5.29999999999999E-01   1.00000000000000E+00   0.00000000000000E+00   1.71065207013345E-08
      5.19999999999999E-01   1.00000000000000E+00   0.00000000000000E+00   1.27387488625861E-08
      5.09999999999999E-01   1.00000000000000E+00   0.00000000000000E+00   9.35020290973023E-09
      5.00000000000000E-01   1.00000000000000E+00   0.00000000000000E+00   6.77405328197651E-09
      4.90000000000000E-01   1.00000000000000E+00   0.00000000000000E+00   4.85227182361409E-09
      4.80000000000000E-01   1.00000000000000E+00   0.00000000000000E+00   3.44273369803411E-09
      4.70000000000000E-01   1.00000000000000E+00   0.00000000000000E+00   2.42382219114443E-09
      4.60000000000000E-01   1.00000000000000E+00   0.00000000000000E+00   1.69606777734471E-09
      4.50000000000000E-01   1.00000000000000E+00   0.00000000000000E+00   1.18122989119625E-09
      4.40000000000000E-01   1.00000000000000E+00   0.00000000000000E+00   8.19721814627683E-10
      4.30000000000000E-01   1.00000000000000E+00   0.00000000000000E+00   5.67317436169081E-10
      4.20000000000000E-01   1.00000000000000E+00   0.00000000000000E+00   3.91840367138163E-10
      4.10000000000000E-01   1.00000000000000E+00   0.00000000000000E+00   2.70232485331275E-10
      4.00000000000000E-01   1.00000000000000E+00   0.00000000000000E+00   1.86155368975834E-10
      3.90000000000000E-01   1.00000000000000E+00   0.00000000000000E+00   1.28127930160960E-10
      3.80000000000000E-01   1.00000000000000E+00   0.00000000000000E+00   8.81313506006923E-11
      3.70000000000000E-01   1.00000000000000E+00   0.00000000000000E+00   6.05898318390424E-11
      3.60000000000000E-01   1.00000000000000E+00   0.00000000000000E+00   4.16388578972961E-11
      3.50000000000000E-01   1.00000000000000E+00   0.00000000000000E+00   2.86063293425772E-11
      3.40000000000000E-01   1.00000000000000E+00   0.00000000000000E+00   1.96478585417831E-11
      3.30000000000000E-01   1.00000000000000E+00   0.00000000000000E+00   1.34920227338684E-11
      3.20000000000000E-01   1.00000000000000E+00   0.00000000000000E+00   9.26321934433310E-12
      3.10000000000000E-01   1.00000000000000E+00   0.00000000000000E+00   6.35888184028269E-12
      3.00000000000000E-01   1.00000000000000E+00   0.00000000000000E+00   4.36457426729982E-12
      2.90000000000000E-01   1.00000000000000E+00   0.00000000000000E+00   2.99538005138542E-12
      2.80000000000000E-01   1.00000000000000E+00   0.00000000000000E+00   2.05549366053688E-12
      2.70000000000000E-01   1.00000000000000E+00   0.00000000000000E+00   1.41038855029512E-12
      2.60000000000000E-01   1.00000000000000E+00   0.00000000000000E+00   9.67661252749528E-13
      2.50000000000000E-01   1.00000000000000E+00   0.00000000000000E+00   6.63854411375814E-13
      2.40000000000000E-01   1.00000000000000E+00   0.00000000000000E+00   4.55396634537797E-13
      2.30000000000001E-01   1.00000000000000E+00   0.00000000000000E+00   3.12375184375150E-13
      2.20000000000001E-01   1.00000000000000E+00   0.00000000000000E+00   2.14257001346083E-13
      2.10000000000001E-01   1.00000000000000E+00   0.00000000000000E+00   1.46949200134903E-13
      2.00000000000001E-01   1.00000000000000E+00   0.00000000000000E+00   1.00780148810197E-13
      1.90000000000001E-01   1.00000000000000E+00   0.00000000000000E+00   6.91130716523996E-14
      1.80000000000001E-01   1.00000000000000E+00   0.00000000000000E+00   4.73941546907334E-14
      1.70000000000001E-01   1.00000000000000E+00   0.00000000000000E+00   3.24990683417359E-14
      1.60000000000001E-01   1.00000000000000E+00   0.00000000000000E+00   2.22844081418970E-14
      1.50000000000001E-01   1.00000000000000E+00   0.00000000000000E+00   1.52798286000432E-14
      1.40000000000001E-01   1.00000000000000E+00   0.00000000000000E+00   1.04767629223424E-14
      1.30000000000001E-01   1.00000000000000E+00   0.00000000000000E+00   7.18344178877387E-15
      1.20000000000001E-01   1.00000000000000E+00   0.00000000000000E+00   4.92541604698450E-15
      1.10000000000001E-01   1.00000000000000E+00   0.00000000000000E+00   3.37730689130668E-15
      1.00000000000001E-01   1.00000000000000E+00   0.00000000000000E+00   2.31598367709216E-15
      9.00000000000010E-02   1.00000000000000E+00   0.00000000000000E+00   1.58844330869167E-15
      8.00000000000010E-02   1.00000000000000E+00   0.00000000000000E+00   1.08977496347948E-15
      7.00000000000012E-02   1.00000000000000E+00   0.00000000000000E+00   7.48035377555623E-16
      6.00000000000012E-02   1.00000000000000E+00   0.00000000000000E+00   5.13922992625414E-16
      5.00000000000012E-02   1.00000000000000E+00   0.00000000000000E+00   3.53589224651079E-16
      4.00000000000011E-02   1.00000000000000E+00   0.00000000000000E+00   2.43834619035581E-16
      3.00000000000011E-02   1.00000000000000E+00   0.00000000000000E+00   1.68717038938245E-16
      2.00000000000014E-02   1.00000000000000E+00   0.00000000000000E+00   1.17278282528534E-16
      1.00000000000013E-02   1.00000000000000E+00   0.00000000000000E+00   8.15958700776940E-17
      0.00000000000000E+00   1.00000000000000E+00   0.00000000000000E+00   5.70753787584214E-17
}
