DF-ISE text

Info {
  version   = 1.0
  type      = xyplot
  datasets  = [
    "vdiff(g,f)" "vdiff(d,f)" "vdiff(s,f)" "i(t1,f)" ]
  functions = [
    Voltage Voltage Voltage Current ]
}

Data {
      1.20000000000000E+00   5.00000000000000E-02   0.00000000000000E+00   6.05116026115334E-07
      1.19000000000000E+00   5.00000000000000E-02   0.00000000000000E+00   5.95787292287019E-07
      1.18000000000000E+00   5.00000000000000E-02   0.00000000000000E+00   5.86281230495847E-07
      1.17000000000000E+00   5.00000000000000E-02   0.00000000000000E+00   5.76596333153640E-07
      1.16000000000000E+00   5.00000000000000E-02   0.00000000000000E+00   5.66731421816340E-07
      1.15000000000000E+00   5.00000000000000E-02   0.00000000000000E+00   5.56685689438780E-07
      1.14000000000000E+00   5.00000000000000E-02   0.00000000000000E+00   5.46458749415789E-07
      1.13000000000000E+00   5.00000000000000E-02   0.00000000000000E+00   5.36050687668722E-07
      1.12000000000000E+00   5.00000000000000E-02   0.00000000000000E+00   5.25462091248259E-07
      1.11000000000000E+00   5.00000000000000E-02   0.00000000000000E+00   5.14694168848538E-07
      1.10000000000000E+00   5.00000000000000E-02   0.00000000000000E+00   5.03748801973689E-07
      1.09000000000000E+00   5.00000000000000E-02   0.00000000000000E+00   4.92628534153733E-07
      1.08000000000000E+00   5.00000000000000E-02   0.00000000000000E+00   4.81336695612172E-07
      1.07000000000000E+00   5.00000000000000E-02   0.00000000000000E+00   4.69877434231706E-07
      1.06000000000000E+00   5.00000000000000E-02   0.00000000000000E+00   4.58255738815453E-07
      1.05000000000000E+00   5.00000000000000E-02   0.00000000000000E+00   4.46477597257135E-07
      1.04000000000000E+00   5.00000000000000E-02   0.00000000000000E+00   4.34549942944161E-07
      1.03000000000000E+00   5.00000000000000E-02   0.00000000000000E+00   4.22480710287425E-07
      1.02000000000000E+00   5.00000000000000E-02   0.00000000000000E+00   4.10278834255742E-07
      1.01000000000000E+00   5.00000000000000E-02   0.00000000000000E+00   3.97954260999203E-07
      1.00000000000000E+00   5.00000000000000E-02   0.00000000000000E+00   3.85517930484392E-07
      9.90000000000000E-01   5.00000000000000E-02   0.00000000000000E+00   3.72981740522517E-07
      9.80000000000000E-01   5.00000000000000E-02   0.00000000000000E+00   3.60358492073547E-07
      9.70000000000000E-01   5.00000000000000E-02   0.00000000000000E+00   3.47661816619836E-07
      9.60000000000000E-01   5.00000000000000E-02   0.00000000000000E+00   3.34906087392266E-07
      9.50000000000000E-01   5.00000000000000E-02   0.00000000000000E+00   3.22106317105976E-07
      9.40000000000000E-01   5.00000000000000E-02   0.00000000000000E+00   3.09278045514662E-07
      9.30000000000000E-01   5.00000000000000E-02   0.00000000000000E+00   2.96437220561568E-07
      9.20000000000000E-01   5.00000000000000E-02   0.00000000000000E+00   2.83600077341306E-07
      9.10000000000000E-01   5.00000000000000E-02   0.00000000000000E+00   2.70783019775623E-07
      9.00000000000000E-01   5.00000000000000E-02   0.00000000000000E+00   2.58002511124538E-07
      8.90000000000000E-01   5.00000000000000E-02   0.00000000000000E+00   2.45274981320454E-07
      8.80000000000000E-01   5.00000000000000E-02   0.00000000000000E+00   2.32616761443159E-07
      8.70000000000000E-01   5.00000000000000E-02   0.00000000000000E+00   2.20044057904782E-07
      8.60000000000000E-01   5.00000000000000E-02   0.00000000000000E+00   2.07572980330555E-07
      8.50000000000000E-01   5.00000000000000E-02   0.00000000000000E+00   1.95219636947066E-07
      8.40000000000000E-01   5.00000000000000E-02   0.00000000000000E+00   1.83000309126808E-07
      8.30000000000000E-01   5.00000000000000E-02   0.00000000000000E+00   1.70931712694416E-07
      8.20000000000000E-01   5.00000000000000E-02   0.00000000000000E+00   1.59031348337662E-07
      8.10000000000000E-01   5.00000000000000E-02   0.00000000000000E+00   1.47317937948277E-07
      8.00000000000000E-01   5.00000000000000E-02   0.00000000000000E+00   1.35811938098982E-07
      7.90000000000000E-01   5.00000000000000E-02   0.00000000000000E+00   1.24536121867714E-07
      7.80000000000000E-01   5.00000000000000E-02   0.00000000000000E+00   1.13516209550034E-07
      7.70000000000000E-01   5.00000000000000E-02   0.00000000000000E+00   1.02781531506430E-07
      7.60000000000000E-01   5.00000000000000E-02   0.00000000000000E+00   9.23656915802722E-08
      7.50000000000000E-01   5.00000000000000E-02   0.00000000000000E+00   8.23071856740027E-08
      7.40000000000000E-01   5.00000000000000E-02   0.00000000000000E+00   7.26498836256670E-08
      7.30000000000000E-01   5.00000000000000E-02   0.00000000000000E+00   6.34432339389618E-08
      7.20000000000000E-01   5.00000000000000E-02   0.00000000000000E+00   5.47419432379575E-08
      7.10000000000000E-01   5.00000000000000E-02   0.00000000000000E+00   4.66047841854689E-08
      6.99999999999999E-01   5.00000000000000E-02   0.00000000000000E+00   3.90921077956207E-08
      6.89999999999999E-01   5.00000000000000E-02   0.00000000000000E+00   3.22616840096721E-08
      6.79999999999999E-01   5.00000000000000E-02   0.00000000000000E+00   2.61627894670670E-08
      6.69999999999999E-01   5.00000000000000E-02   0.00000000000000E+00   2.08290738278668E-08
      6.59999999999999E-01   5.00000000000000E-02   0.00000000000000E+00   1.62715428689419E-08
      6.49999999999999E-01   5.00000000000000E-02   0.00000000000000E+00   1.24736027393974E-08
      6.39999999999999E-01   5.00000000000000E-02   0.00000000000000E+00   9.39002027425323E-09
      6.29999999999999E-01   5.00000000000000E-02   0.00000000000000E+00   6.95065289037889E-09
      6.19999999999999E-01   5.00000000000000E-02   0.00000000000000E+00   5.06824518893500E-09
      6.09999999999999E-01   5.00000000000000E-02   0.00000000000000E+00   3.64824739001119E-09
      5.99999999999999E-01   5.00000000000000E-02   0.00000000000000E+00   2.59816154769690E-09
      5.89999999999999E-01   5.00000000000000E-02   0.00000000000000E+00   1.83450387315889E-09
      5.79999999999999E-01   5.00000000000000E-02   0.00000000000000E+00   1.28663042060009E-09
      5.69999999999999E-01   5.00000000000000E-02   0.00000000000000E+00   8.97743505331191E-10
      5.59999999999999E-01   5.00000000000000E-02   0.00000000000000E+00   6.23964188214038E-10
      5.49999999999999E-01   5.00000000000000E-02   0.00000000000000E+00   4.32413365143151E-10
      5.39999999999999E-01   5.00000000000000E-02   0.00000000000000E+00   2.99013492031161E-10
      5.29999999999999E-01   5.00000000000000E-02   0.00000000000000E+00   2.06430033090224E-10
      5.19999999999999E-01   5.00000000000000E-02   0.00000000000000E+00   1.42337924119326E-10
      5.09999999999999E-01   5.00000000000000E-02   0.00000000000000E+00   9.80532746733257E-11
      5.00000000000000E-01   5.00000000000000E-02   0.00000000000000E+00   6.74979657269185E-11
      4.90000000000000E-01   5.00000000000000E-02   0.00000000000000E+00   4.64381055046010E-11
      4.80000000000000E-01   5.00000000000000E-02   0.00000000000000E+00   3.19347409874598E-11
      4.70000000000000E-01   5.00000000000000E-02   0.00000000000000E+00   2.19530122490502E-11
      4.60000000000000E-01   5.00000000000000E-02   0.00000000000000E+00   1.50866887259225E-11
      4.50000000000000E-01   5.00000000000000E-02   0.00000000000000E+00   1.03653339143692E-11
      4.40000000000000E-01   5.00000000000000E-02   0.00000000000000E+00   7.11996374698521E-12
      4.30000000000000E-01   5.00000000000000E-02   0.00000000000000E+00   4.88978079330767E-12
      4.20000000000000E-01   5.00000000000000E-02   0.00000000000000E+00   3.35758902645964E-12
      4.10000000000000E-01   5.00000000000000E-02   0.00000000000000E+00   2.30515290475316E-12
      4.00000000000000E-01   5.00000000000000E-02   0.00000000000000E+00   1.58238481487651E-12
      3.90000000000000E-01   5.00000000000000E-02   0.00000000000000E+00   1.08609973068934E-12
      3.80000000000000E-01   5.00000000000000E-02   0.00000000000000E+00   7.45378409406447E-13
      3.70000000000000E-01   5.00000000000000E-02   0.00000000000000E+00   5.11489924300431E-13
      3.60000000000000E-01   5.00000000000000E-02   0.00000000000000E+00   3.50956854261216E-13
      3.50000000000000E-01   5.00000000000000E-02   0.00000000000000E+00   2.40785083383634E-13
      3.40000000000000E-01   5.00000000000000E-02   0.00000000000000E+00   1.65183695029026E-13
      3.30000000000000E-01   5.00000000000000E-02   0.00000000000000E+00   1.13310155261583E-13
      3.20000000000000E-01   5.00000000000000E-02   0.00000000000000E+00   7.77206965201693E-14
      3.10000000000000E-01   5.00000000000000E-02   0.00000000000000E+00   5.33055854700868E-14
      3.00000000000000E-01   5.00000000000000E-02   0.00000000000000E+00   3.65576969242597E-14
      2.90000000000000E-01   5.00000000000000E-02   0.00000000000000E+00   2.50701447976874E-14
      2.80000000000000E-01   5.00000000000000E-02   0.00000000000000E+00   1.71918083128183E-14
      2.70000000000000E-01   5.00000000000000E-02   0.00000000000000E+00   1.17878816515494E-14
      2.60000000000000E-01   5.00000000000000E-02   0.00000000000000E+00   8.08239928088016E-15
      2.50000000000000E-01   5.00000000000000E-02   0.00000000000000E+00   5.54145780447022E-15
      2.40000000000000E-01   5.00000000000000E-02   0.00000000000000E+00   3.79917129271821E-15
      2.30000000000001E-01   5.00000000000000E-02   0.00000000000000E+00   2.60457469958804E-15
      2.20000000000001E-01   5.00000000000000E-02   0.00000000000000E+00   1.78554158252951E-15
      2.10000000000001E-01   5.00000000000000E-02   0.00000000000000E+00   1.22402621355843E-15
      2.00000000000001E-01   5.00000000000000E-02   0.00000000000000E+00   8.39077349036228E-16
      1.90000000000001E-01   5.00000000000000E-02   0.00000000000000E+00   5.75185094166852E-16
      1.80000000000001E-01   5.00000000000000E-02   0.00000000000000E+00   3.94287232608627E-16
      1.70000000000001E-01   5.00000000000000E-02   0.00000000000000E+00   2.70286402175331E-16
      1.60000000000001E-01   5.00000000000000E-02   0.00000000000000E+00   1.85289791209437E-16
      1.50000000000001E-01   5.00000000000000E-02   0.00000000000000E+00   1.27030370999819E-16
      1.40000000000001E-01   5.00000000000000E-02   0.00000000000000E+00   8.70985049678365E-17
      1.30000000000001E-01   5.00000000000000E-02   0.00000000000000E+00   6.07748770471976E-17
      1.20000000000001E-01   5.00000000000000E-02   0.00000000000000E+00   4.09728669460420E-17
      1.10000000000001E-01   5.00000000000000E-02   0.00000000000000E+00   3.08378246197268E-17
      1.00000000000001E-01   5.00000000000000E-02   0.00000000000000E+00   1.83364000346921E-17
      9.00000000000010E-02   5.00000000000000E-02   0.00000000000000E+00   1.32629972707376E-17
      8.00000000000010E-02   5.00000000000000E-02   0.00000000000000E+00   1.12846586787490E-17
      7.00000000000012E-02   5.00000000000000E-02   0.00000000000000E+00   1.43429125088201E-17
      6.00000000000012E-02   5.00000000000000E-02   0.00000000000000E+00   4.34031089090172E-18
      5.00000000000012E-02   5.00000000000000E-02   0.00000000000000E+00   3.00780661250311E-18
      4.00000000000011E-02   5.00000000000000E-02   0.00000000000000E+00   1.51751323907673E-18
      3.00000000000011E-02   5.00000000000000E-02   0.00000000000000E+00  -4.22695837857836E-18
      2.00000000000014E-02   5.00000000000000E-02   0.00000000000000E+00   1.03535053024335E-18
      1.00000000000013E-02   5.00000000000000E-02   0.00000000000000E+00   1.96088603004099E-18
      0.00000000000000E+00   5.00000000000000E-02   0.00000000000000E+00   5.43329007808083E-19
}
