DF-ISE text

Info {
  version   = 1.0
  type      = xyplot
  datasets  = [
    "vdiff(g,f)" "vdiff(d,f)" "vdiff(s,f)" "i(t1,f)" ]
  functions = [
    Voltage Voltage Voltage Current ]
}

Data {
      1.20000000000000E+00   1.00000000000000E+00   0.00000000000000E+00   2.94686607208239E-06
      1.19000000000000E+00   1.00000000000000E+00   0.00000000000000E+00   2.84747627449829E-06
      1.18000000000000E+00   1.00000000000000E+00   0.00000000000000E+00   2.74897900036457E-06
      1.17000000000000E+00   1.00000000000000E+00   0.00000000000000E+00   2.65143428951714E-06
      1.16000000000000E+00   1.00000000000000E+00   0.00000000000000E+00   2.55490214398923E-06
      1.15000000000000E+00   1.00000000000000E+00   0.00000000000000E+00   2.45944245494455E-06
      1.14000000000000E+00   1.00000000000000E+00   0.00000000000000E+00   2.36511492598649E-06
      1.13000000000000E+00   1.00000000000000E+00   0.00000000000000E+00   2.27197899327339E-06
      1.12000000000000E+00   1.00000000000000E+00   0.00000000000000E+00   2.18009374147293E-06
      1.11000000000000E+00   1.00000000000000E+00   0.00000000000000E+00   2.08951781239044E-06
      1.10000000000000E+00   1.00000000000000E+00   0.00000000000000E+00   2.00030929583221E-06
      1.09000000000000E+00   1.00000000000000E+00   0.00000000000000E+00   1.91252556583157E-06
      1.08000000000000E+00   1.00000000000000E+00   0.00000000000000E+00   1.82622332706349E-06
      1.07000000000000E+00   1.00000000000000E+00   0.00000000000000E+00   1.74145842244318E-06
      1.06000000000000E+00   1.00000000000000E+00   0.00000000000000E+00   1.65828589145635E-06
      1.05000000000000E+00   1.00000000000000E+00   0.00000000000000E+00   1.57675919793568E-06
      1.04000000000000E+00   1.00000000000000E+00   0.00000000000000E+00   1.49693110633204E-06
      1.03000000000000E+00   1.00000000000000E+00   0.00000000000000E+00   1.41885238289781E-06
      1.02000000000000E+00   1.00000000000000E+00   0.00000000000000E+00   1.34257345828055E-06
      1.01000000000000E+00   1.00000000000000E+00   0.00000000000000E+00   1.26814265611895E-06
      1.00000000000000E+00   1.00000000000000E+00   0.00000000000000E+00   1.19560601116156E-06
      9.90000000000000E-01   1.00000000000000E+00   0.00000000000000E+00   1.12500846381815E-06
      9.80000000000000E-01   1.00000000000000E+00   0.00000000000000E+00   1.05639209182136E-06
      9.70000000000000E-01   1.00000000000000E+00   0.00000000000000E+00   9.89797829345044E-07
      9.60000000000000E-01   1.00000000000000E+00   0.00000000000000E+00   9.25263967884121E-07
      9.50000000000000E-01   1.00000000000000E+00   0.00000000000000E+00   8.62826334597238E-07
      9.40000000000000E-01   1.00000000000000E+00   0.00000000000000E+00   8.02518318809774E-07
      9.30000000000000E-01   1.00000000000000E+00   0.00000000000000E+00   7.44370797153038E-07
      9.20000000000000E-01   1.00000000000000E+00   0.00000000000000E+00   6.88412060324869E-07
      9.10000000000000E-01   1.00000000000000E+00   0.00000000000000E+00   6.34667743877142E-07
      9.00000000000000E-01   1.00000000000000E+00   0.00000000000000E+00   5.83160722120577E-07
      8.90000000000000E-01   1.00000000000000E+00   0.00000000000000E+00   5.33911138763326E-07
      8.80000000000000E-01   1.00000000000000E+00   0.00000000000000E+00   4.86936410299289E-07
      8.70000000000000E-01   1.00000000000000E+00   0.00000000000000E+00   4.42250951389670E-07
      8.60000000000000E-01   1.00000000000000E+00   0.00000000000000E+00   3.99866361166956E-07
      8.50000000000000E-01   1.00000000000000E+00   0.00000000000000E+00   3.59791098898926E-07
      8.40000000000000E-01   1.00000000000000E+00   0.00000000000000E+00   3.22030352082521E-07
      8.30000000000000E-01   1.00000000000000E+00   0.00000000000000E+00   2.86585874054906E-07
      8.20000000000000E-01   1.00000000000000E+00   0.00000000000000E+00   2.53455684195883E-07
      8.10000000000000E-01   1.00000000000000E+00   0.00000000000000E+00   2.22633645407067E-07
      8.00000000000000E-01   1.00000000000000E+00   0.00000000000000E+00   1.94108889354219E-07
      7.90000000000000E-01   1.00000000000000E+00   0.00000000000000E+00   1.67865057163735E-07
      7.80000000000000E-01   1.00000000000000E+00   0.00000000000000E+00   1.43879322888238E-07
      7.70000000000000E-01   1.00000000000000E+00   0.00000000000000E+00   1.22121169714907E-07
      7.60000000000000E-01   1.00000000000000E+00   0.00000000000000E+00   1.02550894450039E-07
      7.50000000000000E-01   1.00000000000000E+00   0.00000000000000E+00   8.51178511352201E-08
      7.40000000000000E-01   1.00000000000000E+00   0.00000000000000E+00   6.97584338493588E-08
      7.30000000000000E-01   1.00000000000000E+00   0.00000000000000E+00   5.63939006890605E-08
      7.20000000000000E-01   1.00000000000000E+00   0.00000000000000E+00   4.49282413787855E-08
      7.10000000000000E-01   1.00000000000000E+00   0.00000000000000E+00   3.52464048030224E-08
      6.99999999999999E-01   1.00000000000000E+00   0.00000000000000E+00   2.72133987255830E-08
      6.89999999999999E-01   1.00000000000000E+00   0.00000000000000E+00   2.06749333119558E-08
      6.79999999999999E-01   1.00000000000000E+00   0.00000000000000E+00   1.54602986257431E-08
      6.69999999999999E-01   1.00000000000000E+00   0.00000000000000E+00   1.13878865462037E-08
      6.59999999999999E-01   1.00000000000000E+00   0.00000000000000E+00   8.27310128005201E-09
      6.49999999999999E-01   1.00000000000000E+00   0.00000000000000E+00   5.93751755140374E-09
      6.39999999999999E-01   1.00000000000000E+00   0.00000000000000E+00   4.21749372638498E-09
      6.29999999999999E-01   1.00000000000000E+00   0.00000000000000E+00   2.97049778873774E-09
      6.19999999999999E-01   1.00000000000000E+00   0.00000000000000E+00   2.07819140050505E-09
      6.09999999999999E-01   1.00000000000000E+00   0.00000000000000E+00   1.44637639991284E-09
      5.99999999999999E-01   1.00000000000000E+00   0.00000000000000E+00   1.00267268096517E-09
      5.89999999999999E-01   1.00000000000000E+00   0.00000000000000E+00   6.93024413371391E-10
      5.79999999999999E-01   1.00000000000000E+00   0.00000000000000E+00   4.77946115327458E-10
      5.69999999999999E-01   1.00000000000000E+00   0.00000000000000E+00   3.29077148431320E-10
      5.59999999999999E-01   1.00000000000000E+00   0.00000000000000E+00   2.26301630273517E-10
      5.49999999999999E-01   1.00000000000000E+00   0.00000000000000E+00   1.55482863316522E-10
      5.39999999999999E-01   1.00000000000000E+00   0.00000000000000E+00   1.06752864090152E-10
      5.29999999999999E-01   1.00000000000000E+00   0.00000000000000E+00   7.32570273327941E-11
      5.19999999999999E-01   1.00000000000000E+00   0.00000000000000E+00   5.02508095068965E-11
      5.09999999999999E-01   1.00000000000000E+00   0.00000000000000E+00   3.44586449438668E-11
      5.00000000000000E-01   1.00000000000000E+00   0.00000000000000E+00   2.36233807156267E-11
      4.90000000000000E-01   1.00000000000000E+00   0.00000000000000E+00   1.61917884549208E-11
      4.80000000000000E-01   1.00000000000000E+00   0.00000000000000E+00   1.10961308333474E-11
      4.70000000000000E-01   1.00000000000000E+00   0.00000000000000E+00   7.60297657974372E-12
      4.60000000000000E-01   1.00000000000000E+00   0.00000000000000E+00   5.20882496929561E-12
      4.50000000000000E-01   1.00000000000000E+00   0.00000000000000E+00   3.56817920824070E-12
      4.40000000000000E-01   1.00000000000000E+00   0.00000000000000E+00   2.44404769232551E-12
      4.30000000000000E-01   1.00000000000000E+00   0.00000000000000E+00   1.67391392096014E-12
      4.20000000000000E-01   1.00000000000000E+00   0.00000000000000E+00   1.14635868699960E-12
      4.10000000000000E-01   1.00000000000000E+00   0.00000000000000E+00   7.85009390361550E-13
      4.00000000000000E-01   1.00000000000000E+00   0.00000000000000E+00   5.37524948927576E-13
      3.90000000000000E-01   1.00000000000000E+00   0.00000000000000E+00   3.68039180258658E-13
      3.80000000000000E-01   1.00000000000000E+00   0.00000000000000E+00   2.51978273480325E-13
      3.70000000000000E-01   1.00000000000000E+00   0.00000000000000E+00   1.72507320284278E-13
      3.60000000000000E-01   1.00000000000000E+00   0.00000000000000E+00   1.18094318887310E-13
      3.50000000000000E-01   1.00000000000000E+00   0.00000000000000E+00   8.08405203500065E-14
      3.40000000000000E-01   1.00000000000000E+00   0.00000000000000E+00   5.53362030651136E-14
      3.30000000000000E-01   1.00000000000000E+00   0.00000000000000E+00   3.78766303344449E-14
      3.20000000000000E-01   1.00000000000000E+00   0.00000000000000E+00   2.59248750282512E-14
      3.10000000000000E-01   1.00000000000000E+00   0.00000000000000E+00   1.77438207119675E-14
      3.00000000000000E-01   1.00000000000000E+00   0.00000000000000E+00   1.21440834465976E-14
      2.90000000000000E-01   1.00000000000000E+00   0.00000000000000E+00   8.31135436091538E-15
      2.80000000000000E-01   1.00000000000000E+00   0.00000000000000E+00   5.68815047128507E-15
      2.70000000000000E-01   1.00000000000000E+00   0.00000000000000E+00   3.89283493576560E-15
      2.60000000000000E-01   1.00000000000000E+00   0.00000000000000E+00   2.66416413621256E-15
      2.50000000000000E-01   1.00000000000000E+00   0.00000000000000E+00   1.82331708597831E-15
      2.40000000000000E-01   1.00000000000000E+00   0.00000000000000E+00   1.24789679067135E-15
      2.30000000000001E-01   1.00000000000000E+00   0.00000000000000E+00   8.54129678828285E-16
      2.20000000000001E-01   1.00000000000000E+00   0.00000000000000E+00   5.84679042159502E-16
      2.10000000000001E-01   1.00000000000000E+00   0.00000000000000E+00   4.00303191145173E-16
      2.00000000000001E-01   1.00000000000000E+00   0.00000000000000E+00   2.74145860563298E-16
      1.90000000000001E-01   1.00000000000000E+00   0.00000000000000E+00   1.87827323624906E-16
      1.80000000000001E-01   1.00000000000000E+00   0.00000000000000E+00   1.28768630204570E-16
      1.70000000000001E-01   1.00000000000000E+00   0.00000000000000E+00   8.83616320279646E-17
      1.60000000000001E-01   1.00000000000000E+00   0.00000000000000E+00   6.07165502805273E-17
      1.50000000000001E-01   1.00000000000000E+00   0.00000000000000E+00   4.17989028713610E-17
      1.40000000000001E-01   1.00000000000000E+00   0.00000000000000E+00   2.88608214861512E-17
      1.30000000000001E-01   1.00000000000000E+00   0.00000000000000E+00   2.00175542863739E-17
      1.20000000000001E-01   1.00000000000000E+00   0.00000000000000E+00   1.39629953165537E-17
      1.10000000000001E-01   1.00000000000000E+00   0.00000000000000E+00   9.81930725225093E-18
      1.00000000000001E-01   1.00000000000000E+00   0.00000000000000E+00   6.98254962717385E-18
      9.00000000000010E-02   1.00000000000000E+00   0.00000000000000E+00   5.03986971036015E-18
      8.00000000000010E-02   1.00000000000000E+00   0.00000000000000E+00   3.70345291544354E-18
      7.00000000000012E-02   1.00000000000000E+00   0.00000000000000E+00   2.77359538379226E-18
      6.00000000000012E-02   1.00000000000000E+00   0.00000000000000E+00   1.42848580265301E-18
      5.00000000000012E-02   1.00000000000000E+00   0.00000000000000E+00   1.68914276332727E-18
      4.00000000000011E-02   1.00000000000000E+00   0.00000000000000E+00   1.44782679155799E-18
      3.00000000000011E-02   1.00000000000000E+00   0.00000000000000E+00   1.25962491776039E-18
      2.00000000000014E-02   1.00000000000000E+00   0.00000000000000E+00   1.09425476641677E-18
      1.00000000000013E-02   1.00000000000000E+00   0.00000000000000E+00   8.16149277675421E-19
      0.00000000000000E+00   1.00000000000000E+00   0.00000000000000E+00   9.13073952204968E-19
}
