DF-ISE text

Info {
  version   = 1.0
  type      = xyplot
  datasets  = [
    "vdiff(g,f)" "vdiff(d,f)" "vdiff(s,f)" "i(t1,f)" ]
  functions = [
    Voltage Voltage Voltage Current ]
}

Data {
      1.20000000000000E+00   5.00000000000000E-02   0.00000000000000E+00   7.74423005103134E-07
      1.19000000000000E+00   5.00000000000000E-02   0.00000000000000E+00   7.63997642338504E-07
      1.18000000000000E+00   5.00000000000000E-02   0.00000000000000E+00   7.53414873172430E-07
      1.17000000000000E+00   5.00000000000000E-02   0.00000000000000E+00   7.42674245349811E-07
      1.16000000000000E+00   5.00000000000000E-02   0.00000000000000E+00   7.31775579569036E-07
      1.15000000000000E+00   5.00000000000000E-02   0.00000000000000E+00   7.20718981217267E-07
      1.14000000000000E+00   5.00000000000000E-02   0.00000000000000E+00   7.09504918376095E-07
      1.13000000000000E+00   5.00000000000000E-02   0.00000000000000E+00   6.98134189366153E-07
      1.12000000000000E+00   5.00000000000000E-02   0.00000000000000E+00   6.86607987821081E-07
      1.11000000000000E+00   5.00000000000000E-02   0.00000000000000E+00   6.74927888574372E-07
      1.10000000000000E+00   5.00000000000000E-02   0.00000000000000E+00   6.63095951759996E-07
      1.09000000000000E+00   5.00000000000000E-02   0.00000000000000E+00   6.51114708721193E-07
      1.08000000000000E+00   5.00000000000000E-02   0.00000000000000E+00   6.38987207198992E-07
      1.07000000000000E+00   5.00000000000000E-02   0.00000000000000E+00   6.26717043585760E-07
      1.06000000000000E+00   5.00000000000000E-02   0.00000000000000E+00   6.14308392781908E-07
      1.05000000000000E+00   5.00000000000000E-02   0.00000000000000E+00   6.01766001867528E-07
      1.04000000000000E+00   5.00000000000000E-02   0.00000000000000E+00   5.89095320175423E-07
      1.03000000000000E+00   5.00000000000000E-02   0.00000000000000E+00   5.76302419183668E-07
      1.02000000000000E+00   5.00000000000000E-02   0.00000000000000E+00   5.63394025856008E-07
      1.01000000000000E+00   5.00000000000000E-02   0.00000000000000E+00   5.50377532214117E-07
      1.00000000000000E+00   5.00000000000000E-02   0.00000000000000E+00   5.37260979511545E-07
      9.90000000000000E-01   5.00000000000000E-02   0.00000000000000E+00   5.24053048414697E-07
      9.80000000000000E-01   5.00000000000000E-02   0.00000000000000E+00   5.10763060970203E-07
      9.70000000000000E-01   5.00000000000000E-02   0.00000000000000E+00   4.97400915428816E-07
      9.60000000000000E-01   5.00000000000000E-02   0.00000000000000E+00   4.83977012973840E-07
      9.50000000000000E-01   5.00000000000000E-02   0.00000000000000E+00   4.70502205648872E-07
      9.40000000000000E-01   5.00000000000000E-02   0.00000000000000E+00   4.56987722033453E-07
      9.30000000000000E-01   5.00000000000000E-02   0.00000000000000E+00   4.43445084375237E-07
      9.20000000000000E-01   5.00000000000000E-02   0.00000000000000E+00   4.29886021079740E-07
      9.10000000000000E-01   5.00000000000000E-02   0.00000000000000E+00   4.16322377404665E-07
      9.00000000000000E-01   5.00000000000000E-02   0.00000000000000E+00   4.02766026699917E-07
      8.90000000000000E-01   5.00000000000000E-02   0.00000000000000E+00   3.89228783707199E-07
      8.80000000000000E-01   5.00000000000000E-02   0.00000000000000E+00   3.75722320527730E-07
      8.70000000000000E-01   5.00000000000000E-02   0.00000000000000E+00   3.62258085239736E-07
      8.60000000000000E-01   5.00000000000000E-02   0.00000000000000E+00   3.48847223141182E-07
      8.50000000000000E-01   5.00000000000000E-02   0.00000000000000E+00   3.35500501401359E-07
      8.40000000000000E-01   5.00000000000000E-02   0.00000000000000E+00   3.22228239471611E-07
      8.30000000000000E-01   5.00000000000000E-02   0.00000000000000E+00   3.09040249604039E-07
      8.20000000000000E-01   5.00000000000000E-02   0.00000000000000E+00   2.95945793735564E-07
      8.10000000000000E-01   5.00000000000000E-02   0.00000000000000E+00   2.82953564250040E-07
      8.00000000000000E-01   5.00000000000000E-02   0.00000000000000E+00   2.70071696306022E-07
      7.90000000000000E-01   5.00000000000000E-02   0.00000000000000E+00   2.57307818356973E-07
      7.80000000000000E-01   5.00000000000000E-02   0.00000000000000E+00   2.44669145355030E-07
      7.70000000000000E-01   5.00000000000000E-02   0.00000000000000E+00   2.32162616336812E-07
      7.60000000000000E-01   5.00000000000000E-02   0.00000000000000E+00   2.19795075183108E-07
      7.50000000000000E-01   5.00000000000000E-02   0.00000000000000E+00   2.07573490845586E-07
      7.40000000000000E-01   5.00000000000000E-02   0.00000000000000E+00   1.95505211635635E-07
      7.30000000000000E-01   5.00000000000000E-02   0.00000000000000E+00   1.83598247498333E-07
      7.20000000000000E-01   5.00000000000000E-02   0.00000000000000E+00   1.71861574624663E-07
      7.10000000000000E-01   5.00000000000000E-02   0.00000000000000E+00   1.60305458256430E-07
      6.99999999999999E-01   5.00000000000000E-02   0.00000000000000E+00   1.48941791513907E-07
      6.89999999999999E-01   5.00000000000000E-02   0.00000000000000E+00   1.37784454020141E-07
      6.79999999999999E-01   5.00000000000000E-02   0.00000000000000E+00   1.26849690786400E-07
      6.69999999999999E-01   5.00000000000000E-02   0.00000000000000E+00   1.16156523196545E-07
      6.59999999999999E-01   5.00000000000000E-02   0.00000000000000E+00   1.05727197267370E-07
      6.49999999999999E-01   5.00000000000000E-02   0.00000000000000E+00   9.55876726224373E-08
      6.39999999999999E-01   5.00000000000000E-02   0.00000000000000E+00   8.57681428483273E-08
      6.29999999999999E-01   5.00000000000000E-02   0.00000000000000E+00   7.63035443931637E-08
      6.19999999999999E-01   5.00000000000000E-02   0.00000000000000E+00   6.72339734349346E-08
      6.09999999999999E-01   5.00000000000000E-02   0.00000000000000E+00   5.86048461164687E-08
      5.99999999999999E-01   5.00000000000000E-02   0.00000000000000E+00   5.04665457249088E-08
      5.89999999999999E-01   5.00000000000000E-02   0.00000000000000E+00   4.28731966184390E-08
      5.79999999999999E-01   5.00000000000000E-02   0.00000000000000E+00   3.58801470210560E-08
      5.69999999999999E-01   5.00000000000000E-02   0.00000000000000E+00   2.95398221965639E-08
      5.59999999999999E-01   5.00000000000000E-02   0.00000000000000E+00   2.38959384432192E-08
      5.49999999999999E-01   5.00000000000000E-02   0.00000000000000E+00   1.89766908078212E-08
      5.39999999999999E-01   5.00000000000000E-02   0.00000000000000E+00   1.47882898907978E-08
      5.29999999999999E-01   5.00000000000000E-02   0.00000000000000E+00   1.13107243949262E-08
      5.19999999999999E-01   5.00000000000000E-02   0.00000000000000E+00   8.49741112130311E-09
      5.09999999999999E-01   5.00000000000000E-02   0.00000000000000E+00   6.27933285025057E-09
      5.00000000000000E-01   5.00000000000000E-02   0.00000000000000E+00   4.57277436461250E-09
      4.90000000000000E-01   5.00000000000000E-02   0.00000000000000E+00   3.28860098384583E-09
      4.80000000000000E-01   5.00000000000000E-02   0.00000000000000E+00   2.34076476787096E-09
      4.70000000000000E-01   5.00000000000000E-02   0.00000000000000E+00   1.65239735721027E-09
      4.60000000000000E-01   5.00000000000000E-02   0.00000000000000E+00   1.15896025545661E-09
      4.50000000000000E-01   5.00000000000000E-02   0.00000000000000E+00   8.08864376401414E-10
      4.40000000000000E-01   5.00000000000000E-02   0.00000000000000E+00   5.62418685690062E-10
      4.30000000000000E-01   5.00000000000000E-02   0.00000000000000E+00   3.89965208668888E-10
      4.20000000000000E-01   5.00000000000000E-02   0.00000000000000E+00   2.69823903357672E-10
      4.10000000000000E-01   5.00000000000000E-02   0.00000000000000E+00   1.86402318465670E-10
      4.00000000000000E-01   5.00000000000000E-02   0.00000000000000E+00   1.28619344637778E-10
      3.90000000000000E-01   5.00000000000000E-02   0.00000000000000E+00   8.86682488253433E-11
      3.80000000000000E-01   5.00000000000000E-02   0.00000000000000E+00   6.10838577182657E-11
      3.70000000000000E-01   5.00000000000000E-02   0.00000000000000E+00   4.20578205270454E-11
      3.60000000000000E-01   5.00000000000000E-02   0.00000000000000E+00   2.89452349046308E-11
      3.50000000000000E-01   5.00000000000000E-02   0.00000000000000E+00   1.99137399531258E-11
      3.40000000000000E-01   5.00000000000000E-02   0.00000000000000E+00   1.36962089976310E-11
      3.30000000000000E-01   5.00000000000000E-02   0.00000000000000E+00   9.41758417702314E-12
      3.20000000000000E-01   5.00000000000000E-02   0.00000000000000E+00   6.47418799848932E-12
      3.10000000000000E-01   5.00000000000000E-02   0.00000000000000E+00   4.44989113106408E-12
      3.00000000000000E-01   5.00000000000000E-02   0.00000000000000E+00   3.05802378668840E-12
      2.90000000000000E-01   5.00000000000000E-02   0.00000000000000E+00   2.10119803873361E-12
      2.80000000000000E-01   5.00000000000000E-02   0.00000000000000E+00   1.44355607122369E-12
      2.70000000000000E-01   5.00000000000000E-02   0.00000000000000E+00   9.91621046393708E-13
      2.60000000000000E-01   5.00000000000000E-02   0.00000000000000E+00   6.81094404205299E-13
      2.50000000000000E-01   5.00000000000000E-02   0.00000000000000E+00   4.67758717424415E-13
      2.40000000000000E-01   5.00000000000000E-02   0.00000000000000E+00   3.21212562926749E-13
      2.30000000000001E-01   5.00000000000000E-02   0.00000000000000E+00   2.20557544587174E-13
      2.20000000000001E-01   5.00000000000000E-02   0.00000000000000E+00   1.51430208969528E-13
      2.10000000000001E-01   5.00000000000000E-02   0.00000000000000E+00   1.03960074082454E-13
      2.00000000000001E-01   5.00000000000000E-02   0.00000000000000E+00   7.13651529756083E-14
      1.90000000000001E-01   5.00000000000000E-02   0.00000000000000E+00   4.89861607547354E-14
      1.80000000000001E-01   5.00000000000000E-02   0.00000000000000E+00   3.36225132336238E-14
      1.70000000000001E-01   5.00000000000000E-02   0.00000000000000E+00   2.30758932924503E-14
      1.60000000000001E-01   5.00000000000000E-02   0.00000000000000E+00   1.58365491081371E-14
      1.50000000000001E-01   5.00000000000000E-02   0.00000000000000E+00   1.08677220998367E-14
      1.40000000000001E-01   5.00000000000000E-02   0.00000000000000E+00   7.45752869044703E-15
      1.30000000000001E-01   5.00000000000000E-02   0.00000000000000E+00   5.11720222785280E-15
      1.20000000000001E-01   5.00000000000000E-02   0.00000000000000E+00   3.51119293048518E-15
      1.10000000000001E-01   5.00000000000000E-02   0.00000000000000E+00   2.40915706546375E-15
      1.00000000000001E-01   5.00000000000000E-02   0.00000000000000E+00   1.65298395810586E-15
      9.00000000000010E-02   5.00000000000000E-02   0.00000000000000E+00   1.13415276853698E-15
      8.00000000000010E-02   5.00000000000000E-02   0.00000000000000E+00   7.78184329470431E-16
      7.00000000000012E-02   5.00000000000000E-02   0.00000000000000E+00   5.33965887225035E-16
      6.00000000000012E-02   5.00000000000000E-02   0.00000000000000E+00   3.66422290991054E-16
      5.00000000000012E-02   5.00000000000000E-02   0.00000000000000E+00   2.51485118618608E-16
      4.00000000000011E-02   5.00000000000000E-02   0.00000000000000E+00   1.72639408372388E-16
      3.00000000000011E-02   5.00000000000000E-02   0.00000000000000E+00   1.18553929945200E-16
      2.00000000000014E-02   5.00000000000000E-02   0.00000000000000E+00   8.14543680572317E-17
      1.00000000000013E-02   5.00000000000000E-02   0.00000000000000E+00   5.60065359714623E-17
      0.00000000000000E+00   5.00000000000000E-02   0.00000000000000E+00   3.85512172633810E-17
}
