DF-ISE text

Info {
  version   = 1.0
  type      = xyplot
  datasets  = [
    "vdiff(g,f)" "vdiff(d,f)" "vdiff(s,f)" "i(t1,f)" ]
  functions = [
    Voltage Voltage Voltage Current ]
}

Data {
      1.20000000000000E+00   5.00000000000000E-02   0.00000000000000E+00   5.07710251165198E-07
      1.19000000000000E+00   5.00000000000000E-02   0.00000000000000E+00   4.99270075097442E-07
      1.18000000000000E+00   5.00000000000000E-02   0.00000000000000E+00   4.90644652475633E-07
      1.17000000000000E+00   5.00000000000000E-02   0.00000000000000E+00   4.81831344373634E-07
      1.16000000000000E+00   5.00000000000000E-02   0.00000000000000E+00   4.72827852743016E-07
      1.15000000000000E+00   5.00000000000000E-02   0.00000000000000E+00   4.63632223487080E-07
      1.14000000000000E+00   5.00000000000000E-02   0.00000000000000E+00   4.54242874806254E-07
      1.13000000000000E+00   5.00000000000000E-02   0.00000000000000E+00   4.44658766804807E-07
      1.12000000000000E+00   5.00000000000000E-02   0.00000000000000E+00   4.34879382580218E-07
      1.11000000000000E+00   5.00000000000000E-02   0.00000000000000E+00   4.24904807398078E-07
      1.10000000000000E+00   5.00000000000000E-02   0.00000000000000E+00   4.14735791067427E-07
      1.09000000000000E+00   5.00000000000000E-02   0.00000000000000E+00   4.04373848515607E-07
      1.08000000000000E+00   5.00000000000000E-02   0.00000000000000E+00   3.93821343942403E-07
      1.07000000000000E+00   5.00000000000000E-02   0.00000000000000E+00   3.83081607088104E-07
      1.06000000000000E+00   5.00000000000000E-02   0.00000000000000E+00   3.72158985388830E-07
      1.05000000000000E+00   5.00000000000000E-02   0.00000000000000E+00   3.61058920457471E-07
      1.04000000000000E+00   5.00000000000000E-02   0.00000000000000E+00   3.49788029981441E-07
      1.03000000000000E+00   5.00000000000000E-02   0.00000000000000E+00   3.38354185452799E-07
      1.02000000000000E+00   5.00000000000000E-02   0.00000000000000E+00   3.26766573449063E-07
      1.01000000000000E+00   5.00000000000000E-02   0.00000000000000E+00   3.15035743358602E-07
      1.00000000000000E+00   5.00000000000000E-02   0.00000000000000E+00   3.03173639138138E-07
      9.90000000000000E-01   5.00000000000000E-02   0.00000000000000E+00   2.91193613315144E-07
      9.80000000000000E-01   5.00000000000000E-02   0.00000000000000E+00   2.79110422319745E-07
      9.70000000000000E-01   5.00000000000000E-02   0.00000000000000E+00   2.66940203244423E-07
      9.60000000000000E-01   5.00000000000000E-02   0.00000000000000E+00   2.54700433281337E-07
      9.50000000000000E-01   5.00000000000000E-02   0.00000000000000E+00   2.42409874507340E-07
      9.40000000000000E-01   5.00000000000000E-02   0.00000000000000E+00   2.30088508663225E-07
      9.30000000000000E-01   5.00000000000000E-02   0.00000000000000E+00   2.17757469477621E-07
      9.20000000000000E-01   5.00000000000000E-02   0.00000000000000E+00   2.05438984179902E-07
      9.10000000000000E-01   5.00000000000000E-02   0.00000000000000E+00   1.93156341008884E-07
      9.00000000000000E-01   5.00000000000000E-02   0.00000000000000E+00   1.80933905010764E-07
      8.90000000000000E-01   5.00000000000000E-02   0.00000000000000E+00   1.68797208818165E-07
      8.80000000000000E-01   5.00000000000000E-02   0.00000000000000E+00   1.56773146586888E-07
      8.70000000000000E-01   5.00000000000000E-02   0.00000000000000E+00   1.44890296111012E-07
      8.60000000000000E-01   5.00000000000000E-02   0.00000000000000E+00   1.33179385245646E-07
      8.50000000000000E-01   5.00000000000000E-02   0.00000000000000E+00   1.21673903892497E-07
      8.40000000000000E-01   5.00000000000000E-02   0.00000000000000E+00   1.10410841694027E-07
      8.30000000000000E-01   5.00000000000000E-02   0.00000000000000E+00   9.94315053459325E-08
      8.20000000000000E-01   5.00000000000000E-02   0.00000000000000E+00   8.87823434206181E-08
      8.10000000000000E-01   5.00000000000000E-02   0.00000000000000E+00   7.85156296079644E-08
      8.00000000000000E-01   5.00000000000000E-02   0.00000000000000E+00   6.86898261960202E-08
      7.90000000000000E-01   5.00000000000000E-02   0.00000000000000E+00   5.93693362790139E-08
      7.80000000000000E-01   5.00000000000000E-02   0.00000000000000E+00   5.06232614520448E-08
      7.70000000000000E-01   5.00000000000000E-02   0.00000000000000E+00   4.25226985743374E-08
      7.60000000000000E-01   5.00000000000000E-02   0.00000000000000E+00   3.51361711792934E-08
      7.50000000000000E-01   5.00000000000000E-02   0.00000000000000E+00   2.85231013940067E-08
      7.40000000000000E-01   5.00000000000000E-02   0.00000000000000E+00   2.27258840886836E-08
      7.30000000000000E-01   5.00000000000000E-02   0.00000000000000E+00   1.77620060844218E-08
      7.20000000000000E-01   5.00000000000000E-02   0.00000000000000E+00   1.36183418617759E-08
      7.10000000000000E-01   5.00000000000000E-02   0.00000000000000E+00   1.02497009672314E-08
      6.99999999999999E-01   5.00000000000000E-02   0.00000000000000E+00   7.58264927581879E-09
      6.89999999999999E-01   5.00000000000000E-02   0.00000000000000E+00   5.52392893031136E-09
      6.79999999999999E-01   5.00000000000000E-02   0.00000000000000E+00   3.97128550958226E-09
      6.69999999999999E-01   5.00000000000000E-02   0.00000000000000E+00   2.82393878976665E-09
      6.59999999999999E-01   5.00000000000000E-02   0.00000000000000E+00   1.99050735255837E-09
      6.49999999999999E-01   5.00000000000000E-02   0.00000000000000E+00   1.39346238527578E-09
      6.39999999999999E-01   5.00000000000000E-02   0.00000000000000E+00   9.70404135373839E-10
      6.29999999999999E-01   5.00000000000000E-02   0.00000000000000E+00   6.73129751959783E-10
      6.19999999999999E-01   5.00000000000000E-02   0.00000000000000E+00   4.65552825046901E-10
      6.09999999999999E-01   5.00000000000000E-02   0.00000000000000E+00   3.21285683903241E-10
      5.99999999999999E-01   5.00000000000000E-02   0.00000000000000E+00   2.21365081152506E-10
      5.89999999999999E-01   5.00000000000000E-02   0.00000000000000E+00   1.52335165106117E-10
      5.79999999999999E-01   5.00000000000000E-02   0.00000000000000E+00   1.04735507402827E-10
      5.69999999999999E-01   5.00000000000000E-02   0.00000000000000E+00   7.19588557516403E-11
      5.59999999999999E-01   5.00000000000000E-02   0.00000000000000E+00   4.94127608936507E-11
      5.49999999999999E-01   5.00000000000000E-02   0.00000000000000E+00   3.39162666892562E-11
      5.39999999999999E-01   5.00000000000000E-02   0.00000000000000E+00   2.32716520846426E-11
      5.29999999999999E-01   5.00000000000000E-02   0.00000000000000E+00   1.59633246297318E-11
      5.19999999999999E-01   5.00000000000000E-02   0.00000000000000E+00   1.09475348640983E-11
      5.09999999999999E-01   5.00000000000000E-02   0.00000000000000E+00   7.50621880830712E-12
      5.00000000000000E-01   5.00000000000000E-02   0.00000000000000E+00   5.14575987632799E-12
      4.90000000000000E-01   5.00000000000000E-02   0.00000000000000E+00   3.52703856371145E-12
      4.80000000000000E-01   5.00000000000000E-02   0.00000000000000E+00   2.41718799836918E-12
      4.70000000000000E-01   5.00000000000000E-02   0.00000000000000E+00   1.65636465769364E-12
      4.60000000000000E-01   5.00000000000000E-02   0.00000000000000E+00   1.13488421350998E-12
      4.50000000000000E-01   5.00000000000000E-02   0.00000000000000E+00   7.77501510703000E-13
      4.40000000000000E-01   5.00000000000000E-02   0.00000000000000E+00   5.32608942971841E-13
      4.30000000000000E-01   5.00000000000000E-02   0.00000000000000E+00   3.64817942815261E-13
      4.20000000000000E-01   5.00000000000000E-02   0.00000000000000E+00   2.49865962643296E-13
      4.10000000000000E-01   5.00000000000000E-02   0.00000000000000E+00   1.71121098609321E-13
      4.00000000000000E-01   5.00000000000000E-02   0.00000000000000E+00   1.17183841208097E-13
      3.90000000000000E-01   5.00000000000000E-02   0.00000000000000E+00   8.02419723067228E-14
      3.80000000000000E-01   5.00000000000000E-02   0.00000000000000E+00   5.49423214427002E-14
      3.70000000000000E-01   5.00000000000000E-02   0.00000000000000E+00   3.76171347531105E-14
      3.60000000000000E-01   5.00000000000000E-02   0.00000000000000E+00   2.57536864562984E-14
      3.50000000000000E-01   5.00000000000000E-02   0.00000000000000E+00   1.76307071974073E-14
      3.40000000000000E-01   5.00000000000000E-02   0.00000000000000E+00   1.20691961810435E-14
      3.30000000000000E-01   5.00000000000000E-02   0.00000000000000E+00   8.26165206111067E-15
      3.20000000000000E-01   5.00000000000000E-02   0.00000000000000E+00   5.65505796605975E-15
      3.10000000000000E-01   5.00000000000000E-02   0.00000000000000E+00   3.87070872889113E-15
      3.00000000000000E-01   5.00000000000000E-02   0.00000000000000E+00   2.64928602428353E-15
      2.90000000000000E-01   5.00000000000000E-02   0.00000000000000E+00   1.81323379507418E-15
      2.80000000000000E-01   5.00000000000000E-02   0.00000000000000E+00   1.24098679052462E-15
      2.70000000000000E-01   5.00000000000000E-02   0.00000000000000E+00   8.49319368061681E-16
      2.60000000000000E-01   5.00000000000000E-02   0.00000000000000E+00   5.81256898327140E-16
      2.50000000000000E-01   5.00000000000000E-02   0.00000000000000E+00   3.97797499320996E-16
      2.40000000000000E-01   5.00000000000000E-02   0.00000000000000E+00   2.72243617626376E-16
      2.30000000000001E-01   5.00000000000000E-02   0.00000000000000E+00   1.86320990780724E-16
      2.20000000000001E-01   5.00000000000000E-02   0.00000000000000E+00   1.27521541882964E-16
      2.10000000000001E-01   5.00000000000000E-02   0.00000000000000E+00   8.72842801049936E-17
      2.00000000000001E-01   5.00000000000000E-02   0.00000000000000E+00   5.97624089472387E-17
      1.90000000000001E-01   5.00000000000000E-02   0.00000000000000E+00   4.09140001636577E-17
      1.80000000000001E-01   5.00000000000000E-02   0.00000000000000E+00   2.80761878195824E-17
      1.70000000000001E-01   5.00000000000000E-02   0.00000000000000E+00   1.91931565933067E-17
      1.60000000000001E-01   5.00000000000000E-02   0.00000000000000E+00   1.31574648050848E-17
      1.50000000000001E-01   5.00000000000000E-02   0.00000000000000E+00   9.05603416442577E-18
      1.40000000000001E-01   5.00000000000000E-02   0.00000000000000E+00   6.20465110179118E-18
      1.30000000000001E-01   5.00000000000000E-02   0.00000000000000E+00   4.31369032904531E-18
      1.20000000000001E-01   5.00000000000000E-02   0.00000000000000E+00   2.93379941383722E-18
      1.10000000000001E-01   5.00000000000000E-02   0.00000000000000E+00   2.03221341177883E-18
      1.00000000000001E-01   5.00000000000000E-02   0.00000000000000E+00   1.41193950082844E-18
      9.00000000000010E-02   5.00000000000000E-02   0.00000000000000E+00   9.81318400515667E-19
      8.00000000000010E-02   5.00000000000000E-02   0.00000000000000E+00   6.96296212669961E-19
      7.00000000000012E-02   5.00000000000000E-02   0.00000000000000E+00   4.96745093424262E-19
      6.00000000000012E-02   5.00000000000000E-02   0.00000000000000E+00   3.59592559449952E-19
      5.00000000000012E-02   5.00000000000000E-02   0.00000000000000E+00   2.65139126597633E-19
      4.00000000000011E-02   5.00000000000000E-02   0.00000000000000E+00   1.99885540765759E-19
      3.00000000000011E-02   5.00000000000000E-02   0.00000000000000E+00   1.94266358651486E-19
      2.00000000000014E-02   5.00000000000000E-02   0.00000000000000E+00   1.23195409317534E-19
      1.00000000000013E-02   5.00000000000000E-02   0.00000000000000E+00   1.00792454689766E-19
      0.00000000000000E+00   5.00000000000000E-02   0.00000000000000E+00   8.50523834275067E-20
}
