DF-ISE text

Info {
  version   = 1.0
  type      = xyplot
  datasets  = [
    "vdiff(g,f)" "vdiff(d,f)" "vdiff(s,f)" "i(t1,f)" ]
  functions = [
    Voltage Voltage Voltage Current ]
}

Data {
      1.20000000000000E+00   5.00000000000000E-02   0.00000000000000E+00   7.05513612927780E-06
      1.19000000000000E+00   5.00000000000000E-02   0.00000000000000E+00   6.96388394371916E-06
      1.18000000000000E+00   5.00000000000000E-02   0.00000000000000E+00   6.86977834867348E-06
      1.17000000000000E+00   5.00000000000000E-02   0.00000000000000E+00   6.77277012032181E-06
      1.16000000000000E+00   5.00000000000000E-02   0.00000000000000E+00   6.67281371904653E-06
      1.15000000000000E+00   5.00000000000000E-02   0.00000000000000E+00   6.56987724006029E-06
      1.14000000000000E+00   5.00000000000000E-02   0.00000000000000E+00   6.46393883699124E-06
      1.13000000000000E+00   5.00000000000000E-02   0.00000000000000E+00   6.35498518442943E-06
      1.12000000000000E+00   5.00000000000000E-02   0.00000000000000E+00   6.24301478188548E-06
      1.11000000000000E+00   5.00000000000000E-02   0.00000000000000E+00   6.12803931406957E-06
      1.10000000000000E+00   5.00000000000000E-02   0.00000000000000E+00   6.01008431819295E-06
      1.09000000000000E+00   5.00000000000000E-02   0.00000000000000E+00   5.88918556142474E-06
      1.08000000000000E+00   5.00000000000000E-02   0.00000000000000E+00   5.76540172204092E-06
      1.07000000000000E+00   5.00000000000000E-02   0.00000000000000E+00   5.63881282335534E-06
      1.06000000000000E+00   5.00000000000000E-02   0.00000000000000E+00   5.50951159129204E-06
      1.05000000000000E+00   5.00000000000000E-02   0.00000000000000E+00   5.37760871529051E-06
      1.04000000000000E+00   5.00000000000000E-02   0.00000000000000E+00   5.24322742323909E-06
      1.03000000000000E+00   5.00000000000000E-02   0.00000000000000E+00   5.10651726578358E-06
      1.02000000000000E+00   5.00000000000000E-02   0.00000000000000E+00   4.96764683516609E-06
      1.01000000000000E+00   5.00000000000000E-02   0.00000000000000E+00   4.82680056759700E-06
      1.00000000000000E+00   5.00000000000000E-02   0.00000000000000E+00   4.68417649203442E-06
      9.90000000000000E-01   5.00000000000000E-02   0.00000000000000E+00   4.53998678361713E-06
      9.80000000000000E-01   5.00000000000000E-02   0.00000000000000E+00   4.39445601471122E-06
      9.70000000000000E-01   5.00000000000000E-02   0.00000000000000E+00   4.24781911015138E-06
      9.60000000000000E-01   5.00000000000000E-02   0.00000000000000E+00   4.10031907810579E-06
      9.50000000000000E-01   5.00000000000000E-02   0.00000000000000E+00   3.95220458268654E-06
      9.40000000000000E-01   5.00000000000000E-02   0.00000000000000E+00   3.80372743017398E-06
      9.30000000000000E-01   5.00000000000000E-02   0.00000000000000E+00   3.65514004232025E-06
      9.20000000000000E-01   5.00000000000000E-02   0.00000000000000E+00   3.50669298641999E-06
      9.10000000000000E-01   5.00000000000000E-02   0.00000000000000E+00   3.35863262490387E-06
      9.00000000000000E-01   5.00000000000000E-02   0.00000000000000E+00   3.21119894076474E-06
      8.90000000000000E-01   5.00000000000000E-02   0.00000000000000E+00   3.06462359320884E-06
      8.80000000000000E-01   5.00000000000000E-02   0.00000000000000E+00   2.91912826336728E-06
      8.70000000000000E-01   5.00000000000000E-02   0.00000000000000E+00   2.77492336239969E-06
      8.60000000000000E-01   5.00000000000000E-02   0.00000000000000E+00   2.63220718992654E-06
      8.50000000000000E-01   5.00000000000000E-02   0.00000000000000E+00   2.49116564268489E-06
      8.40000000000000E-01   5.00000000000000E-02   0.00000000000000E+00   2.35197257370951E-06
      8.30000000000000E-01   5.00000000000000E-02   0.00000000000000E+00   2.21479088540551E-06
      8.20000000000000E-01   5.00000000000000E-02   0.00000000000000E+00   2.07977440511212E-06
      8.10000000000000E-01   5.00000000000000E-02   0.00000000000000E+00   1.94707054157489E-06
      8.00000000000000E-01   5.00000000000000E-02   0.00000000000000E+00   1.81682368020701E-06
      7.90000000000000E-01   5.00000000000000E-02   0.00000000000000E+00   1.68917913075524E-06
      7.80000000000000E-01   5.00000000000000E-02   0.00000000000000E+00   1.56428776804503E-06
      7.70000000000000E-01   5.00000000000000E-02   0.00000000000000E+00   1.44231080170720E-06
      7.60000000000000E-01   5.00000000000000E-02   0.00000000000000E+00   1.32342532630795E-06
      7.50000000000000E-01   5.00000000000000E-02   0.00000000000000E+00   1.20782867142260E-06
      7.40000000000000E-01   5.00000000000000E-02   0.00000000000000E+00   1.09574453564670E-06
      7.30000000000000E-01   5.00000000000000E-02   0.00000000000000E+00   9.87427254542281E-07
      7.20000000000000E-01   5.00000000000000E-02   0.00000000000000E+00   8.83166699766322E-07
      7.10000000000000E-01   5.00000000000000E-02   0.00000000000000E+00   7.83292306810195E-07
      6.99999999999999E-01   5.00000000000000E-02   0.00000000000000E+00   6.88175467800683E-07
      6.89999999999999E-01   5.00000000000000E-02   0.00000000000000E+00   5.98228963327131E-07
      6.79999999999999E-01   5.00000000000000E-02   0.00000000000000E+00   5.13901258057637E-07
      6.69999999999999E-01   5.00000000000000E-02   0.00000000000000E+00   4.35662719225873E-07
      6.59999999999999E-01   5.00000000000000E-02   0.00000000000000E+00   3.63980555409507E-07
      6.49999999999999E-01   5.00000000000000E-02   0.00000000000000E+00   2.99280293427000E-07
      6.39999999999999E-01   5.00000000000000E-02   0.00000000000000E+00   2.41894655240057E-07
      6.29999999999999E-01   5.00000000000000E-02   0.00000000000000E+00   1.92005760982194E-07
      6.19999999999999E-01   5.00000000000000E-02   0.00000000000000E+00   1.49591994304307E-07
      6.09999999999999E-01   5.00000000000000E-02   0.00000000000000E+00   1.14394121651637E-07
      5.99999999999999E-01   5.00000000000000E-02   0.00000000000000E+00   8.59133142262547E-08
      5.89999999999999E-01   5.00000000000000E-02   0.00000000000000E+00   6.34464258040246E-08
      5.79999999999999E-01   5.00000000000000E-02   0.00000000000000E+00   4.61532307980602E-08
      5.69999999999999E-01   5.00000000000000E-02   0.00000000000000E+00   3.31403085854628E-08
      5.59999999999999E-01   5.00000000000000E-02   0.00000000000000E+00   2.35417113676080E-08
      5.49999999999999E-01   5.00000000000000E-02   0.00000000000000E+00   1.65798005642748E-08
      5.39999999999999E-01   5.00000000000000E-02   0.00000000000000E+00   1.15987847498126E-08
      5.29999999999999E-01   5.00000000000000E-02   0.00000000000000E+00   8.07301273909702E-09
      5.19999999999999E-01   5.00000000000000E-02   0.00000000000000E+00   5.59766496446075E-09
      5.09999999999999E-01   5.00000000000000E-02   0.00000000000000E+00   3.87040744542492E-09
      5.00000000000000E-01   5.00000000000000E-02   0.00000000000000E+00   2.67059592015278E-09
      4.90000000000000E-01   5.00000000000000E-02   0.00000000000000E+00   1.83992250386753E-09
      4.80000000000000E-01   5.00000000000000E-02   0.00000000000000E+00   1.26620490582423E-09
      4.70000000000000E-01   5.00000000000000E-02   0.00000000000000E+00   8.70656039127022E-10
      4.60000000000000E-01   5.00000000000000E-02   0.00000000000000E+00   5.98297642740482E-10
      4.50000000000000E-01   5.00000000000000E-02   0.00000000000000E+00   4.10942027726947E-10
      4.40000000000000E-01   5.00000000000000E-02   0.00000000000000E+00   2.82151811033130E-10
      4.30000000000000E-01   5.00000000000000E-02   0.00000000000000E+00   1.93667909618831E-10
      4.20000000000000E-01   5.00000000000000E-02   0.00000000000000E+00   1.32901350725391E-10
      4.10000000000000E-01   5.00000000000000E-02   0.00000000000000E+00   9.11834242867538E-11
      4.00000000000000E-01   5.00000000000000E-02   0.00000000000000E+00   6.25504470696953E-11
      3.90000000000000E-01   5.00000000000000E-02   0.00000000000000E+00   4.29025304861991E-11
      3.80000000000000E-01   5.00000000000000E-02   0.00000000000000E+00   2.94225944819661E-11
      3.70000000000000E-01   5.00000000000000E-02   0.00000000000000E+00   2.01757874815319E-11
      3.60000000000000E-01   5.00000000000000E-02   0.00000000000000E+00   1.38336305644344E-11
      3.50000000000000E-01   5.00000000000000E-02   0.00000000000000E+00   9.48422370204352E-12
      3.40000000000000E-01   5.00000000000000E-02   0.00000000000000E+00   6.50175307919329E-12
      3.30000000000000E-01   5.00000000000000E-02   0.00000000000000E+00   4.45681764859555E-12
      3.20000000000000E-01   5.00000000000000E-02   0.00000000000000E+00   3.05483139167747E-12
      3.10000000000000E-01   5.00000000000000E-02   0.00000000000000E+00   2.09372484910280E-12
      3.00000000000000E-01   5.00000000000000E-02   0.00000000000000E+00   1.43490693197642E-12
      2.90000000000000E-01   5.00000000000000E-02   0.00000000000000E+00   9.83334403762374E-13
      2.80000000000000E-01   5.00000000000000E-02   0.00000000000000E+00   6.73835029016050E-13
      2.70000000000000E-01   5.00000000000000E-02   0.00000000000000E+00   4.61723680809431E-13
      2.60000000000000E-01   5.00000000000000E-02   0.00000000000000E+00   3.16364837274847E-13
      2.50000000000000E-01   5.00000000000000E-02   0.00000000000000E+00   2.16756916601738E-13
      2.40000000000000E-01   5.00000000000000E-02   0.00000000000000E+00   1.48503801118832E-13
      2.30000000000001E-01   5.00000000000000E-02   0.00000000000000E+00   1.01737984935948E-13
      2.20000000000001E-01   5.00000000000000E-02   0.00000000000000E+00   6.96964614381433E-14
      2.10000000000001E-01   5.00000000000000E-02   0.00000000000000E+00   4.77442890270491E-14
      2.00000000000001E-01   5.00000000000000E-02   0.00000000000000E+00   3.27051624462607E-14
      1.90000000000001E-01   5.00000000000000E-02   0.00000000000000E+00   2.24024995905252E-14
      1.80000000000001E-01   5.00000000000000E-02   0.00000000000000E+00   1.53448667044162E-14
      1.70000000000001E-01   5.00000000000000E-02   0.00000000000000E+00   1.05103596128262E-14
      1.60000000000001E-01   5.00000000000000E-02   0.00000000000000E+00   7.19882218436603E-15
      1.50000000000001E-01   5.00000000000000E-02   0.00000000000000E+00   4.93056581418075E-15
      1.40000000000001E-01   5.00000000000000E-02   0.00000000000000E+00   3.37696223407999E-15
      1.30000000000001E-01   5.00000000000000E-02   0.00000000000000E+00   2.31288185944892E-15
      1.20000000000001E-01   5.00000000000000E-02   0.00000000000000E+00   1.58410386417080E-15
      1.10000000000001E-01   5.00000000000000E-02   0.00000000000000E+00   1.08498636788436E-15
      1.00000000000001E-01   5.00000000000000E-02   0.00000000000000E+00   7.43165114114951E-16
      9.00000000000010E-02   5.00000000000000E-02   0.00000000000000E+00   5.09076051832788E-16
      8.00000000000010E-02   5.00000000000000E-02   0.00000000000000E+00   3.48795488629735E-16
      7.00000000000012E-02   5.00000000000000E-02   0.00000000000000E+00   2.38992698193825E-16
      6.00000000000012E-02   5.00000000000000E-02   0.00000000000000E+00   1.63866243389885E-16
      5.00000000000012E-02   5.00000000000000E-02   0.00000000000000E+00   1.12339966946077E-16
      4.00000000000011E-02   5.00000000000000E-02   0.00000000000000E+00   7.70921218431537E-17
      3.00000000000011E-02   5.00000000000000E-02   0.00000000000000E+00   5.29583383917134E-17
      2.00000000000014E-02   5.00000000000000E-02   0.00000000000000E+00   3.64547631897103E-17
      1.00000000000013E-02   5.00000000000000E-02   0.00000000000000E+00   2.53563607100081E-17
      0.00000000000000E+00   5.00000000000000E-02   0.00000000000000E+00   1.35351415542742E-16
}
