DF-ISE text

Info {
  version   = 1.0
  type      = xyplot
  datasets  = [
    "vdiff(g,f)" "vdiff(d,f)" "vdiff(s,f)" "i(t1,f)" ]
  functions = [
    Voltage Voltage Voltage Current ]
}

Data {
      1.20000000000000E+00   5.00000000000000E-02   0.00000000000000E+00   6.48165549372755E-06
      1.19000000000000E+00   5.00000000000000E-02   0.00000000000000E+00   6.39499066500135E-06
      1.18000000000000E+00   5.00000000000000E-02   0.00000000000000E+00   6.30541321843620E-06
      1.17000000000000E+00   5.00000000000000E-02   0.00000000000000E+00   6.21286098889572E-06
      1.16000000000000E+00   5.00000000000000E-02   0.00000000000000E+00   6.11727928287719E-06
      1.15000000000000E+00   5.00000000000000E-02   0.00000000000000E+00   6.01862182926414E-06
      1.14000000000000E+00   5.00000000000000E-02   0.00000000000000E+00   5.91685112937461E-06
      1.13000000000000E+00   5.00000000000000E-02   0.00000000000000E+00   5.81194147192656E-06
      1.12000000000000E+00   5.00000000000000E-02   0.00000000000000E+00   5.70388099198915E-06
      1.11000000000000E+00   5.00000000000000E-02   0.00000000000000E+00   5.59267373257710E-06
      1.10000000000000E+00   5.00000000000000E-02   0.00000000000000E+00   5.47833176119823E-06
      1.09000000000000E+00   5.00000000000000E-02   0.00000000000000E+00   5.36089309413676E-06
      1.08000000000000E+00   5.00000000000000E-02   0.00000000000000E+00   5.24041543991725E-06
      1.07000000000000E+00   5.00000000000000E-02   0.00000000000000E+00   5.11697191815539E-06
      1.06000000000000E+00   5.00000000000000E-02   0.00000000000000E+00   4.99065547104731E-06
      1.05000000000000E+00   5.00000000000000E-02   0.00000000000000E+00   4.86157196238034E-06
      1.04000000000000E+00   5.00000000000000E-02   0.00000000000000E+00   4.72986189817595E-06
      1.03000000000000E+00   5.00000000000000E-02   0.00000000000000E+00   4.59568433893920E-06
      1.02000000000000E+00   5.00000000000000E-02   0.00000000000000E+00   4.45921790110673E-06
      1.01000000000000E+00   5.00000000000000E-02   0.00000000000000E+00   4.32065909864436E-06
      1.00000000000000E+00   5.00000000000000E-02   0.00000000000000E+00   4.18022277831774E-06
      9.90000000000000E-01   5.00000000000000E-02   0.00000000000000E+00   4.03814053428977E-06
      9.80000000000000E-01   5.00000000000000E-02   0.00000000000000E+00   3.89465874380414E-06
      9.70000000000000E-01   5.00000000000000E-02   0.00000000000000E+00   3.75003628550572E-06
      9.60000000000000E-01   5.00000000000000E-02   0.00000000000000E+00   3.60454200489145E-06
      9.50000000000000E-01   5.00000000000000E-02   0.00000000000000E+00   3.45845200197966E-06
      9.40000000000000E-01   5.00000000000000E-02   0.00000000000000E+00   3.31204682238618E-06
      9.30000000000000E-01   5.00000000000000E-02   0.00000000000000E+00   3.16560863410308E-06
      9.20000000000000E-01   5.00000000000000E-02   0.00000000000000E+00   3.01941847107965E-06
      9.10000000000000E-01   5.00000000000000E-02   0.00000000000000E+00   2.87375362551550E-06
      9.00000000000000E-01   5.00000000000000E-02   0.00000000000000E+00   2.72888527807362E-06
      8.90000000000000E-01   5.00000000000000E-02   0.00000000000000E+00   2.58507647128622E-06
      8.80000000000000E-01   5.00000000000000E-02   0.00000000000000E+00   2.44258055450033E-06
      8.70000000000000E-01   5.00000000000000E-02   0.00000000000000E+00   2.30164025202181E-06
      8.60000000000000E-01   5.00000000000000E-02   0.00000000000000E+00   2.16248751931537E-06
      8.50000000000000E-01   5.00000000000000E-02   0.00000000000000E+00   2.02534434450688E-06
      8.40000000000000E-01   5.00000000000000E-02   0.00000000000000E+00   1.89042461722683E-06
      8.30000000000000E-01   5.00000000000000E-02   0.00000000000000E+00   1.75793712440834E-06
      8.20000000000000E-01   5.00000000000000E-02   0.00000000000000E+00   1.62808965133657E-06
      8.10000000000000E-01   5.00000000000000E-02   0.00000000000000E+00   1.50109402030991E-06
      8.00000000000000E-01   5.00000000000000E-02   0.00000000000000E+00   1.37717190503642E-06
      7.90000000000000E-01   5.00000000000000E-02   0.00000000000000E+00   1.25656211514101E-06
      7.80000000000000E-01   5.00000000000000E-02   0.00000000000000E+00   1.13952626914100E-06
      7.70000000000000E-01   5.00000000000000E-02   0.00000000000000E+00   1.02635644497289E-06
      7.60000000000000E-01   5.00000000000000E-02   0.00000000000000E+00   9.17380453096408E-07
      7.50000000000000E-01   5.00000000000000E-02   0.00000000000000E+00   8.12967061836672E-07
      7.40000000000000E-01   5.00000000000000E-02   0.00000000000000E+00   7.13528924654634E-07
      7.30000000000000E-01   5.00000000000000E-02   0.00000000000000E+00   6.19521681252197E-07
      7.20000000000000E-01   5.00000000000000E-02   0.00000000000000E+00   5.31436997580882E-07
      7.10000000000000E-01   5.00000000000000E-02   0.00000000000000E+00   4.49786499442717E-07
      6.99999999999999E-01   5.00000000000000E-02   0.00000000000000E+00   3.75073384556910E-07
      6.89999999999999E-01   5.00000000000000E-02   0.00000000000000E+00   3.07749738468389E-07
      6.79999999999999E-01   5.00000000000000E-02   0.00000000000000E+00   2.48161010725960E-07
      6.69999999999999E-01   5.00000000000000E-02   0.00000000000000E+00   1.96484626535620E-07
      6.59999999999999E-01   5.00000000000000E-02   0.00000000000000E+00   1.52675365742918E-07
      6.49999999999999E-01   5.00000000000000E-02   0.00000000000000E+00   1.16432941381790E-07
      6.39999999999999E-01   5.00000000000000E-02   0.00000000000000E+00   8.72046089162424E-08
      6.29999999999999E-01   5.00000000000000E-02   0.00000000000000E+00   6.42271726563257E-08
      6.19999999999999E-01   5.00000000000000E-02   0.00000000000000E+00   4.66014214462356E-08
      6.09999999999999E-01   5.00000000000000E-02   0.00000000000000E+00   3.33819025182189E-08
      5.99999999999999E-01   5.00000000000000E-02   0.00000000000000E+00   2.36609343155624E-08
      5.89999999999999E-01   5.00000000000000E-02   0.00000000000000E+00   1.66301069420428E-08
      5.79999999999999E-01   5.00000000000000E-02   0.00000000000000E+00   1.16125256729540E-08
      5.69999999999999E-01   5.00000000000000E-02   0.00000000000000E+00   8.06891384393175E-09
      5.59999999999999E-01   5.00000000000000E-02   0.00000000000000E+00   5.58608194751621E-09
      5.49999999999999E-01   5.00000000000000E-02   0.00000000000000E+00   3.85676530212805E-09
      5.39999999999999E-01   5.00000000000000E-02   0.00000000000000E+00   2.65752122081563E-09
      5.29999999999999E-01   5.00000000000000E-02   0.00000000000000E+00   1.82851466104867E-09
      5.19999999999999E-01   5.00000000000000E-02   0.00000000000000E+00   1.25676931655666E-09
      5.09999999999999E-01   5.00000000000000E-02   0.00000000000000E+00   8.63114709619401E-10
      5.00000000000000E-01   5.00000000000000E-02   0.00000000000000E+00   5.92411729527470E-10
      4.90000000000000E-01   5.00000000000000E-02   0.00000000000000E+00   4.06427269518300E-10
      4.80000000000000E-01   5.00000000000000E-02   0.00000000000000E+00   2.78734358323356E-10
      4.70000000000000E-01   5.00000000000000E-02   0.00000000000000E+00   1.91107906607502E-10
      4.60000000000000E-01   5.00000000000000E-02   0.00000000000000E+00   1.30999760032856E-10
      4.50000000000000E-01   5.00000000000000E-02   0.00000000000000E+00   8.97807056568050E-11
      4.40000000000000E-01   5.00000000000000E-02   0.00000000000000E+00   6.15217591756171E-11
      4.30000000000000E-01   5.00000000000000E-02   0.00000000000000E+00   4.21518934573167E-11
      4.20000000000000E-01   5.00000000000000E-02   0.00000000000000E+00   2.88772069840821E-11
      4.10000000000000E-01   5.00000000000000E-02   0.00000000000000E+00   1.97810147368859E-11
      4.00000000000000E-01   5.00000000000000E-02   0.00000000000000E+00   1.35488236463615E-11
      3.90000000000000E-01   5.00000000000000E-02   0.00000000000000E+00   9.27935450959082E-12
      3.80000000000000E-01   5.00000000000000E-02   0.00000000000000E+00   6.35477217001528E-12
      3.70000000000000E-01   5.00000000000000E-02   0.00000000000000E+00   4.35161705451244E-12
      3.60000000000000E-01   5.00000000000000E-02   0.00000000000000E+00   2.97969561717741E-12
      3.50000000000000E-01   5.00000000000000E-02   0.00000000000000E+00   2.04016596048817E-12
      3.40000000000000E-01   5.00000000000000E-02   0.00000000000000E+00   1.39679627489034E-12
      3.30000000000000E-01   5.00000000000000E-02   0.00000000000000E+00   9.56260171925291E-13
      3.20000000000000E-01   5.00000000000000E-02   0.00000000000000E+00   6.54629875894567E-13
      3.10000000000000E-01   5.00000000000000E-02   0.00000000000000E+00   4.48119199538745E-13
      3.00000000000000E-01   5.00000000000000E-02   0.00000000000000E+00   3.06739986866213E-13
      2.90000000000000E-01   5.00000000000000E-02   0.00000000000000E+00   2.09955578636736E-13
      2.80000000000000E-01   5.00000000000000E-02   0.00000000000000E+00   1.43702933459542E-13
      2.70000000000000E-01   5.00000000000000E-02   0.00000000000000E+00   9.83526358595076E-14
      2.60000000000000E-01   5.00000000000000E-02   0.00000000000000E+00   6.73115288116622E-14
      2.50000000000000E-01   5.00000000000000E-02   0.00000000000000E+00   4.60656160469967E-14
      2.40000000000000E-01   5.00000000000000E-02   0.00000000000000E+00   3.15245695155765E-14
      2.30000000000001E-01   5.00000000000000E-02   0.00000000000000E+00   2.15728320142768E-14
      2.20000000000001E-01   5.00000000000000E-02   0.00000000000000E+00   1.47622224777477E-14
      2.10000000000001E-01   5.00000000000000E-02   0.00000000000000E+00   1.01014527249110E-14
      2.00000000000001E-01   5.00000000000000E-02   0.00000000000000E+00   6.91201149036340E-15
      1.90000000000001E-01   5.00000000000000E-02   0.00000000000000E+00   4.72949534804798E-15
      1.80000000000001E-01   5.00000000000000E-02   0.00000000000000E+00   3.23605876648603E-15
      1.70000000000001E-01   5.00000000000000E-02   0.00000000000000E+00   2.21417125797363E-15
      1.60000000000001E-01   5.00000000000000E-02   0.00000000000000E+00   1.51496245696043E-15
      1.50000000000001E-01   5.00000000000000E-02   0.00000000000000E+00   1.03655420497110E-15
      1.40000000000001E-01   5.00000000000000E-02   0.00000000000000E+00   7.09229411204654E-16
      1.30000000000001E-01   5.00000000000000E-02   0.00000000000000E+00   4.85280914706506E-16
      1.20000000000001E-01   5.00000000000000E-02   0.00000000000000E+00   3.32063876358324E-16
      1.10000000000001E-01   5.00000000000000E-02   0.00000000000000E+00   2.27240910680004E-16
      1.00000000000001E-01   5.00000000000000E-02   0.00000000000000E+00   1.55528046520003E-16
      9.00000000000010E-02   5.00000000000000E-02   0.00000000000000E+00   1.06467952844036E-16
      8.00000000000010E-02   5.00000000000000E-02   0.00000000000000E+00   7.29055663873569E-17
      7.00000000000012E-02   5.00000000000000E-02   0.00000000000000E+00   4.99456258508090E-17
      6.00000000000012E-02   5.00000000000000E-02   0.00000000000000E+00   3.42390713068152E-17
      5.00000000000012E-02   5.00000000000000E-02   0.00000000000000E+00   2.34947230844086E-17
      4.00000000000011E-02   5.00000000000000E-02   0.00000000000000E+00   1.61451471715741E-17
      3.00000000000011E-02   5.00000000000000E-02   0.00000000000000E+00   1.11193426961201E-17
      2.00000000000014E-02   5.00000000000000E-02   0.00000000000000E+00   7.73320605975507E-18
      1.00000000000013E-02   5.00000000000000E-02   0.00000000000000E+00   6.09236026892982E-18
      0.00000000000000E+00   5.00000000000000E-02   0.00000000000000E+00   7.88543162511394E-18
}
