DF-ISE text

Info {
  version   = 1.0
  type      = xyplot
  datasets  = [
    "vdiff(g,f)" "vdiff(d,f)" "vdiff(s,f)" "i(t1,f)" ]
  functions = [
    Voltage Voltage Voltage Current ]
}

Data {
      1.20000000000000E+00   5.00000000000000E-02   0.00000000000000E+00   5.89212401749082E-06
      1.19000000000000E+00   5.00000000000000E-02   0.00000000000000E+00   5.81106876050774E-06
      1.18000000000000E+00   5.00000000000000E-02   0.00000000000000E+00   5.72708068416853E-06
      1.17000000000000E+00   5.00000000000000E-02   0.00000000000000E+00   5.64008271761954E-06
      1.16000000000000E+00   5.00000000000000E-02   0.00000000000000E+00   5.55001415718275E-06
      1.15000000000000E+00   5.00000000000000E-02   0.00000000000000E+00   5.45680602758480E-06
      1.14000000000000E+00   5.00000000000000E-02   0.00000000000000E+00   5.36041357117958E-06
      1.13000000000000E+00   5.00000000000000E-02   0.00000000000000E+00   5.26080084051930E-06
      1.12000000000000E+00   5.00000000000000E-02   0.00000000000000E+00   5.15794673749512E-06
      1.11000000000000E+00   5.00000000000000E-02   0.00000000000000E+00   5.05183636989267E-06
      1.10000000000000E+00   5.00000000000000E-02   0.00000000000000E+00   4.94248472853109E-06
      1.09000000000000E+00   5.00000000000000E-02   0.00000000000000E+00   4.82992319956950E-06
      1.08000000000000E+00   5.00000000000000E-02   0.00000000000000E+00   4.71420014007217E-06
      1.07000000000000E+00   5.00000000000000E-02   0.00000000000000E+00   4.59538472370901E-06
      1.06000000000000E+00   5.00000000000000E-02   0.00000000000000E+00   4.47355984896985E-06
      1.05000000000000E+00   5.00000000000000E-02   0.00000000000000E+00   4.34884844672516E-06
      1.04000000000000E+00   5.00000000000000E-02   0.00000000000000E+00   4.22139220202362E-06
      1.03000000000000E+00   5.00000000000000E-02   0.00000000000000E+00   4.09135633761981E-06
      1.02000000000000E+00   5.00000000000000E-02   0.00000000000000E+00   3.95892781602941E-06
      1.01000000000000E+00   5.00000000000000E-02   0.00000000000000E+00   3.82431622589469E-06
      1.00000000000000E+00   5.00000000000000E-02   0.00000000000000E+00   3.68775256755154E-06
      9.90000000000000E-01   5.00000000000000E-02   0.00000000000000E+00   3.54948756933316E-06
      9.80000000000000E-01   5.00000000000000E-02   0.00000000000000E+00   3.40978958362684E-06
      9.70000000000000E-01   5.00000000000000E-02   0.00000000000000E+00   3.26894211960807E-06
      9.60000000000000E-01   5.00000000000000E-02   0.00000000000000E+00   3.12724108593381E-06
      9.50000000000000E-01   5.00000000000000E-02   0.00000000000000E+00   2.98499182952637E-06
      9.40000000000000E-01   5.00000000000000E-02   0.00000000000000E+00   2.84250606571128E-06
      9.30000000000000E-01   5.00000000000000E-02   0.00000000000000E+00   2.70009880360665E-06
      9.20000000000000E-01   5.00000000000000E-02   0.00000000000000E+00   2.55808538338764E-06
      9.10000000000000E-01   5.00000000000000E-02   0.00000000000000E+00   2.41677876307218E-06
      9.00000000000000E-01   5.00000000000000E-02   0.00000000000000E+00   2.27648722255455E-06
      8.90000000000000E-01   5.00000000000000E-02   0.00000000000000E+00   2.13751268693483E-06
      8.80000000000000E-01   5.00000000000000E-02   0.00000000000000E+00   2.00014989867837E-06
      8.70000000000000E-01   5.00000000000000E-02   0.00000000000000E+00   1.86468667388581E-06
      8.60000000000000E-01   5.00000000000000E-02   0.00000000000000E+00   1.73140544808269E-06
      8.50000000000000E-01   5.00000000000000E-02   0.00000000000000E+00   1.60058624433906E-06
      8.40000000000000E-01   5.00000000000000E-02   0.00000000000000E+00   1.47251108440327E-06
      8.30000000000000E-01   5.00000000000000E-02   0.00000000000000E+00   1.34746967074471E-06
      8.20000000000000E-01   5.00000000000000E-02   0.00000000000000E+00   1.22576602908877E-06
      8.10000000000000E-01   5.00000000000000E-02   0.00000000000000E+00   1.10772691372137E-06
      8.00000000000000E-01   5.00000000000000E-02   0.00000000000000E+00   9.93708309539675E-07
      7.90000000000000E-01   5.00000000000000E-02   0.00000000000000E+00   8.84102851702442E-07
      7.80000000000000E-01   5.00000000000000E-02   0.00000000000000E+00   7.79344097315391E-07
      7.70000000000000E-01   5.00000000000000E-02   0.00000000000000E+00   6.79908635745868E-07
      7.60000000000000E-01   5.00000000000000E-02   0.00000000000000E+00   5.86312304805345E-07
      7.50000000000000E-01   5.00000000000000E-02   0.00000000000000E+00   4.99097975114742E-07
      7.40000000000000E-01   5.00000000000000E-02   0.00000000000000E+00   4.18811596276279E-07
      7.30000000000000E-01   5.00000000000000E-02   0.00000000000000E+00   3.45963818490988E-07
      7.20000000000000E-01   5.00000000000000E-02   0.00000000000000E+00   2.80977093256372E-07
      7.10000000000000E-01   5.00000000000000E-02   0.00000000000000E+00   2.24123089760894E-07
      6.99999999999999E-01   5.00000000000000E-02   0.00000000000000E+00   1.75461431261544E-07
      6.89999999999999E-01   5.00000000000000E-02   0.00000000000000E+00   1.34795148547121E-07
      6.79999999999999E-01   5.00000000000000E-02   0.00000000000000E+00   1.01657861929518E-07
      6.69999999999999E-01   5.00000000000000E-02   0.00000000000000E+00   7.53413101864110E-08
      6.59999999999999E-01   5.00000000000000E-02   0.00000000000000E+00   5.49607716257430E-08
      6.49999999999999E-01   5.00000000000000E-02   0.00000000000000E+00   3.95444895765559E-08
      6.39999999999999E-01   5.00000000000000E-02   0.00000000000000E+00   2.81259988286107E-08
      6.29999999999999E-01   5.00000000000000E-02   0.00000000000000E+00   1.98191730419174E-08
      6.19999999999999E-01   5.00000000000000E-02   0.00000000000000E+00   1.38643590532098E-08
      6.09999999999999E-01   5.00000000000000E-02   0.00000000000000E+00   9.64498656554902E-09
      5.99999999999999E-01   5.00000000000000E-02   0.00000000000000E+00   6.68187186284643E-09
      5.89999999999999E-01   5.00000000000000E-02   0.00000000000000E+00   4.61488604889852E-09
      5.79999999999999E-01   5.00000000000000E-02   0.00000000000000E+00   3.18013718965185E-09
      5.69999999999999E-01   5.00000000000000E-02   0.00000000000000E+00   2.18783941529013E-09
      5.59999999999999E-01   5.00000000000000E-02   0.00000000000000E+00   1.50335284461719E-09
      5.49999999999999E-01   5.00000000000000E-02   0.00000000000000E+00   1.03209618664429E-09
      5.39999999999999E-01   5.00000000000000E-02   0.00000000000000E+00   7.08095939332095E-10
      5.29999999999999E-01   5.00000000000000E-02   0.00000000000000E+00   4.85565183023614E-10
      5.19999999999999E-01   5.00000000000000E-02   0.00000000000000E+00   3.32841316507703E-10
      5.09999999999999E-01   5.00000000000000E-02   0.00000000000000E+00   2.28085496273793E-10
      5.00000000000000E-01   5.00000000000000E-02   0.00000000000000E+00   1.56262666013045E-10
      4.90000000000000E-01   5.00000000000000E-02   0.00000000000000E+00   1.07035815131052E-10
      4.80000000000000E-01   5.00000000000000E-02   0.00000000000000E+00   7.33049788452585E-11
      4.70000000000000E-01   5.00000000000000E-02   0.00000000000000E+00   5.01971202651494E-11
      4.60000000000000E-01   5.00000000000000E-02   0.00000000000000E+00   3.43694871888594E-11
      4.50000000000000E-01   5.00000000000000E-02   0.00000000000000E+00   2.35300209635039E-11
      4.40000000000000E-01   5.00000000000000E-02   0.00000000000000E+00   1.61076190627777E-11
      4.30000000000000E-01   5.00000000000000E-02   0.00000000000000E+00   1.10256437301248E-11
      4.20000000000000E-01   5.00000000000000E-02   0.00000000000000E+00   7.54645896452566E-12
      4.10000000000000E-01   5.00000000000000E-02   0.00000000000000E+00   5.16477839145413E-12
      4.00000000000000E-01   5.00000000000000E-02   0.00000000000000E+00   3.53452905453748E-12
      3.90000000000000E-01   5.00000000000000E-02   0.00000000000000E+00   2.41871490504912E-12
      3.80000000000000E-01   5.00000000000000E-02   0.00000000000000E+00   1.65505606759508E-12
      3.70000000000000E-01   5.00000000000000E-02   0.00000000000000E+00   1.13244497946923E-12
      3.60000000000000E-01   5.00000000000000E-02   0.00000000000000E+00   7.74817111220892E-13
      3.50000000000000E-01   5.00000000000000E-02   0.00000000000000E+00   5.30102918010492E-13
      3.40000000000000E-01   5.00000000000000E-02   0.00000000000000E+00   3.62661286146637E-13
      3.30000000000000E-01   5.00000000000000E-02   0.00000000000000E+00   2.48097988893394E-13
      3.20000000000000E-01   5.00000000000000E-02   0.00000000000000E+00   1.69717764085436E-13
      3.10000000000000E-01   5.00000000000000E-02   0.00000000000000E+00   1.16095205102241E-13
      3.00000000000000E-01   5.00000000000000E-02   0.00000000000000E+00   7.94118026270184E-14
      2.90000000000000E-01   5.00000000000000E-02   0.00000000000000E+00   5.43175836359376E-14
      2.80000000000000E-01   5.00000000000000E-02   0.00000000000000E+00   3.71519176093586E-14
      2.70000000000000E-01   5.00000000000000E-02   0.00000000000000E+00   2.54102063885364E-14
      2.60000000000000E-01   5.00000000000000E-02   0.00000000000000E+00   1.73788905786878E-14
      2.50000000000000E-01   5.00000000000000E-02   0.00000000000000E+00   1.18856662735235E-14
      2.40000000000000E-01   5.00000000000000E-02   0.00000000000000E+00   8.12855588791841E-15
      2.30000000000001E-01   5.00000000000000E-02   0.00000000000000E+00   5.55894619368201E-15
      2.20000000000001E-01   5.00000000000000E-02   0.00000000000000E+00   3.80155890539629E-15
      2.10000000000001E-01   5.00000000000000E-02   0.00000000000000E+00   2.59969470726600E-15
      2.00000000000001E-01   5.00000000000000E-02   0.00000000000000E+00   1.77777123320567E-15
      1.90000000000001E-01   5.00000000000000E-02   0.00000000000000E+00   1.21569413182409E-15
      1.80000000000001E-01   5.00000000000000E-02   0.00000000000000E+00   8.31324236436409E-16
      1.70000000000001E-01   5.00000000000000E-02   0.00000000000000E+00   5.68483752626290E-16
      1.60000000000001E-01   5.00000000000000E-02   0.00000000000000E+00   3.88751875793226E-16
      1.50000000000001E-01   5.00000000000000E-02   0.00000000000000E+00   2.65852804578894E-16
      1.40000000000001E-01   5.00000000000000E-02   0.00000000000000E+00   1.81817166125841E-16
      1.30000000000001E-01   5.00000000000000E-02   0.00000000000000E+00   1.24356549115080E-16
      1.20000000000001E-01   5.00000000000000E-02   0.00000000000000E+00   8.50676292976389E-17
      1.10000000000001E-01   5.00000000000000E-02   0.00000000000000E+00   5.82041201681409E-17
      1.00000000000001E-01   5.00000000000000E-02   0.00000000000000E+00   3.98368020039935E-17
      9.00000000000010E-02   5.00000000000000E-02   0.00000000000000E+00   2.72788754802666E-17
      8.00000000000010E-02   5.00000000000000E-02   0.00000000000000E+00   1.86923757983775E-17
      7.00000000000012E-02   5.00000000000000E-02   0.00000000000000E+00   1.28216736819444E-17
      6.00000000000012E-02   5.00000000000000E-02   0.00000000000000E+00   8.80795739043248E-18
      5.00000000000012E-02   5.00000000000000E-02   0.00000000000000E+00   6.06367784888871E-18
      4.00000000000011E-02   5.00000000000000E-02   0.00000000000000E+00   4.18913217532138E-18
      3.00000000000011E-02   5.00000000000000E-02   0.00000000000000E+00   2.93628508152548E-18
      2.00000000000014E-02   5.00000000000000E-02   0.00000000000000E+00   2.51522777397303E-18
      1.00000000000013E-02   5.00000000000000E-02   0.00000000000000E+00   4.19837752379473E-18
      0.00000000000000E+00   5.00000000000000E-02   0.00000000000000E+00   1.32381640737576E-17
}
