DF-ISE text

Info {
  version   = 1.0
  type      = xyplot
  datasets  = [
    "vdiff(g,f)" "vdiff(d,f)" "vdiff(s,f)" "i(t1,f)" ]
  functions = [
    Voltage Voltage Voltage Current ]
}

Data {
      1.20000000000000E+00   5.00000000000000E-02   0.00000000000000E+00   7.63968749317509E-06
      1.19000000000000E+00   5.00000000000000E-02   0.00000000000000E+00   7.54331518767543E-06
      1.18000000000000E+00   5.00000000000000E-02   0.00000000000000E+00   7.44411270213493E-06
      1.17000000000000E+00   5.00000000000000E-02   0.00000000000000E+00   7.34203827818380E-06
      1.16000000000000E+00   5.00000000000000E-02   0.00000000000000E+00   7.23705239830061E-06
      1.15000000000000E+00   5.00000000000000E-02   0.00000000000000E+00   7.12913284991938E-06
      1.14000000000000E+00   5.00000000000000E-02   0.00000000000000E+00   7.01826357088089E-06
      1.13000000000000E+00   5.00000000000000E-02   0.00000000000000E+00   6.90443742785903E-06
      1.12000000000000E+00   5.00000000000000E-02   0.00000000000000E+00   6.78765838282057E-06
      1.11000000000000E+00   5.00000000000000E-02   0.00000000000000E+00   6.66794253980224E-06
      1.10000000000000E+00   5.00000000000000E-02   0.00000000000000E+00   6.54531913583270E-06
      1.09000000000000E+00   5.00000000000000E-02   0.00000000000000E+00   6.41983142812210E-06
      1.08000000000000E+00   5.00000000000000E-02   0.00000000000000E+00   6.29153372750785E-06
      1.07000000000000E+00   5.00000000000000E-02   0.00000000000000E+00   6.16049826602481E-06
      1.06000000000000E+00   5.00000000000000E-02   0.00000000000000E+00   6.02682207879223E-06
      1.05000000000000E+00   5.00000000000000E-02   0.00000000000000E+00   5.89061235640556E-06
      1.04000000000000E+00   5.00000000000000E-02   0.00000000000000E+00   5.75199278436111E-06
      1.03000000000000E+00   5.00000000000000E-02   0.00000000000000E+00   5.61109742738849E-06
      1.02000000000000E+00   5.00000000000000E-02   0.00000000000000E+00   5.46808624398363E-06
      1.01000000000000E+00   5.00000000000000E-02   0.00000000000000E+00   5.32313585190228E-06
      1.00000000000000E+00   5.00000000000000E-02   0.00000000000000E+00   5.17643497798408E-06
      9.90000000000000E-01   5.00000000000000E-02   0.00000000000000E+00   5.02818451297735E-06
      9.80000000000000E-01   5.00000000000000E-02   0.00000000000000E+00   4.87859709876826E-06
      9.70000000000000E-01   5.00000000000000E-02   0.00000000000000E+00   4.72789532429575E-06
      9.60000000000000E-01   5.00000000000000E-02   0.00000000000000E+00   4.57630967615142E-06
      9.50000000000000E-01   5.00000000000000E-02   0.00000000000000E+00   4.42407631109559E-06
      9.40000000000000E-01   5.00000000000000E-02   0.00000000000000E+00   4.27143471961392E-06
      9.30000000000000E-01   5.00000000000000E-02   0.00000000000000E+00   4.11862535487770E-06
      9.20000000000000E-01   5.00000000000000E-02   0.00000000000000E+00   3.96588730023217E-06
      9.10000000000000E-01   5.00000000000000E-02   0.00000000000000E+00   3.81345603968850E-06
      9.00000000000000E-01   5.00000000000000E-02   0.00000000000000E+00   3.66156138237722E-06
      8.90000000000000E-01   5.00000000000000E-02   0.00000000000000E+00   3.51042557785282E-06
      8.80000000000000E-01   5.00000000000000E-02   0.00000000000000E+00   3.36026164936718E-06
      8.70000000000000E-01   5.00000000000000E-02   0.00000000000000E+00   3.21127197073990E-06
      8.60000000000000E-01   5.00000000000000E-02   0.00000000000000E+00   3.06364712017015E-06
      8.50000000000000E-01   5.00000000000000E-02   0.00000000000000E+00   2.91756505885175E-06
      8.40000000000000E-01   5.00000000000000E-02   0.00000000000000E+00   2.77319069782529E-06
      8.30000000000000E-01   5.00000000000000E-02   0.00000000000000E+00   2.63067592621534E-06
      8.20000000000000E-01   5.00000000000000E-02   0.00000000000000E+00   2.49016017202077E-06
      8.10000000000000E-01   5.00000000000000E-02   0.00000000000000E+00   2.35177155024691E-06
      8.00000000000000E-01   5.00000000000000E-02   0.00000000000000E+00   2.21562862410294E-06
      7.90000000000000E-01   5.00000000000000E-02   0.00000000000000E+00   2.08184276844574E-06
      7.80000000000000E-01   5.00000000000000E-02   0.00000000000000E+00   1.95052108749868E-06
      7.70000000000000E-01   5.00000000000000E-02   0.00000000000000E+00   1.82176967748902E-06
      7.60000000000000E-01   5.00000000000000E-02   0.00000000000000E+00   1.69569783911340E-06
      7.50000000000000E-01   5.00000000000000E-02   0.00000000000000E+00   1.57242157940133E-06
      7.40000000000000E-01   5.00000000000000E-02   0.00000000000000E+00   1.45206847502534E-06
      7.30000000000000E-01   5.00000000000000E-02   0.00000000000000E+00   1.33478148999632E-06
      7.20000000000000E-01   5.00000000000000E-02   0.00000000000000E+00   1.22072400358554E-06
      7.10000000000000E-01   5.00000000000000E-02   0.00000000000000E+00   1.11008409377823E-06
      6.99999999999999E-01   5.00000000000000E-02   0.00000000000000E+00   1.00307904202921E-06
      6.89999999999999E-01   5.00000000000000E-02   0.00000000000000E+00   8.99960070344232E-07
      6.79999999999999E-01   5.00000000000000E-02   0.00000000000000E+00   8.01016576228095E-07
      6.69999999999999E-01   5.00000000000000E-02   0.00000000000000E+00   7.06579384995887E-07
      6.59999999999999E-01   5.00000000000000E-02   0.00000000000000E+00   6.17021863851589E-07
      6.49999999999999E-01   5.00000000000000E-02   0.00000000000000E+00   5.32757013271344E-07
      6.39999999999999E-01   5.00000000000000E-02   0.00000000000000E+00   4.54227858901034E-07
      6.29999999999999E-01   5.00000000000000E-02   0.00000000000000E+00   3.81887965864506E-07
      6.19999999999999E-01   5.00000000000000E-02   0.00000000000000E+00   3.16169327724423E-07
      6.09999999999999E-01   5.00000000000000E-02   0.00000000000000E+00   2.57437039465386E-07
      5.99999999999999E-01   5.00000000000000E-02   0.00000000000000E+00   2.05934362738549E-07
      5.89999999999999E-01   5.00000000000000E-02   0.00000000000000E+00   1.61727207389553E-07
      5.79999999999999E-01   5.00000000000000E-02   0.00000000000000E+00   1.24661460890133E-07
      5.69999999999999E-01   5.00000000000000E-02   0.00000000000000E+00   9.43469150836412E-08
      5.59999999999999E-01   5.00000000000000E-02   0.00000000000000E+00   7.01765111926425E-08
      5.49999999999999E-01   5.00000000000000E-02   0.00000000000000E+00   5.13801765589620E-08
      5.39999999999999E-01   5.00000000000000E-02   0.00000000000000E+00   3.71019147595016E-08
      5.29999999999999E-01   5.00000000000000E-02   0.00000000000000E+00   2.64817061793641E-08
      5.19999999999999E-01   5.00000000000000E-02   0.00000000000000E+00   1.87238836390836E-08
      5.09999999999999E-01   5.00000000000000E-02   0.00000000000000E+00   1.31407504688949E-08
      5.00000000000000E-01   5.00000000000000E-02   0.00000000000000E+00   9.16999785114698E-09
      4.90000000000000E-01   5.00000000000000E-02   0.00000000000000E+00   6.37168799874093E-09
      4.80000000000000E-01   5.00000000000000E-02   0.00000000000000E+00   4.41320613451975E-09
      4.70000000000000E-01   5.00000000000000E-02   0.00000000000000E+00   3.04951932131603E-09
      4.60000000000000E-01   5.00000000000000E-02   0.00000000000000E+00   2.10356384214597E-09
      4.50000000000000E-01   5.00000000000000E-02   0.00000000000000E+00   1.44918719593509E-09
      4.40000000000000E-01   5.00000000000000E-02   0.00000000000000E+00   9.97426296582626E-10
      4.30000000000000E-01   5.00000000000000E-02   0.00000000000000E+00   6.86005819264869E-10
      4.20000000000000E-01   5.00000000000000E-02   0.00000000000000E+00   4.71562909266427E-10
      4.10000000000000E-01   5.00000000000000E-02   0.00000000000000E+00   3.24018459132115E-10
      4.00000000000000E-01   5.00000000000000E-02   0.00000000000000E+00   2.22564933970049E-10
      3.90000000000000E-01   5.00000000000000E-02   0.00000000000000E+00   1.52837052594849E-10
      3.80000000000000E-01   5.00000000000000E-02   0.00000000000000E+00   1.04931539989302E-10
      3.70000000000000E-01   5.00000000000000E-02   0.00000000000000E+00   7.20284617146717E-11
      3.60000000000000E-01   5.00000000000000E-02   0.00000000000000E+00   4.94349787868767E-11
      3.50000000000000E-01   5.00000000000000E-02   0.00000000000000E+00   3.39238693411436E-11
      3.40000000000000E-01   5.00000000000000E-02   0.00000000000000E+00   2.32768373118648E-11
      3.30000000000000E-01   5.00000000000000E-02   0.00000000000000E+00   1.59696517907895E-11
      3.20000000000000E-01   5.00000000000000E-02   0.00000000000000E+00   1.09552956631350E-11
      3.10000000000000E-01   5.00000000000000E-02   0.00000000000000E+00   7.51473161850655E-12
      3.00000000000000E-01   5.00000000000000E-02   0.00000000000000E+00   5.15426250031543E-12
      2.90000000000000E-01   5.00000000000000E-02   0.00000000000000E+00   3.53497073112380E-12
      2.80000000000000E-01   5.00000000000000E-02   0.00000000000000E+00   2.42422856225882E-12
      2.70000000000000E-01   5.00000000000000E-02   0.00000000000000E+00   1.66238544119139E-12
      2.60000000000000E-01   5.00000000000000E-02   0.00000000000000E+00   1.13988774300326E-12
      2.50000000000000E-01   5.00000000000000E-02   0.00000000000000E+00   7.81567064939506E-13
      2.40000000000000E-01   5.00000000000000E-02   0.00000000000000E+00   5.35853060423357E-13
      2.30000000000001E-01   5.00000000000000E-02   0.00000000000000E+00   3.67368461618277E-13
      2.20000000000001E-01   5.00000000000000E-02   0.00000000000000E+00   2.51846560279719E-13
      2.10000000000001E-01   5.00000000000000E-02   0.00000000000000E+00   1.72643181417182E-13
      2.00000000000001E-01   5.00000000000000E-02   0.00000000000000E+00   1.18343199290877E-13
      1.90000000000001E-01   5.00000000000000E-02   0.00000000000000E+00   8.11183020820829E-14
      1.80000000000001E-01   5.00000000000000E-02   0.00000000000000E+00   5.56003192406536E-14
      1.70000000000001E-01   5.00000000000000E-02   0.00000000000000E+00   3.81083264361130E-14
      1.60000000000001E-01   5.00000000000000E-02   0.00000000000000E+00   2.61184864008122E-14
      1.50000000000001E-01   5.00000000000000E-02   0.00000000000000E+00   1.79004209118432E-14
      1.40000000000001E-01   5.00000000000000E-02   0.00000000000000E+00   1.22678225424235E-14
      1.30000000000001E-01   5.00000000000000E-02   0.00000000000000E+00   8.40742784915563E-15
      1.20000000000001E-01   5.00000000000000E-02   0.00000000000000E+00   5.76176951618072E-15
      1.10000000000001E-01   5.00000000000000E-02   0.00000000000000E+00   3.94859795025282E-15
      1.00000000000001E-01   5.00000000000000E-02   0.00000000000000E+00   2.70606247347209E-15
      9.00000000000010E-02   5.00000000000000E-02   0.00000000000000E+00   1.85458716607160E-15
      8.00000000000010E-02   5.00000000000000E-02   0.00000000000000E+00   1.27111301857256E-15
      7.00000000000012E-02   5.00000000000000E-02   0.00000000000000E+00   8.71299861707996E-16
      6.00000000000012E-02   5.00000000000000E-02   0.00000000000000E+00   5.97345537972342E-16
      5.00000000000012E-02   5.00000000000000E-02   0.00000000000000E+00   4.09637437878850E-16
      4.00000000000011E-02   5.00000000000000E-02   0.00000000000000E+00   2.81028224068055E-16
      3.00000000000011E-02   5.00000000000000E-02   0.00000000000000E+00   1.92914556614739E-16
      2.00000000000014E-02   5.00000000000000E-02   0.00000000000000E+00   1.32548051326937E-16
      1.00000000000013E-02   5.00000000000000E-02   0.00000000000000E+00   9.11955506891845E-17
      0.00000000000000E+00   5.00000000000000E-02   0.00000000000000E+00   6.29161467946485E-17
}
